LAMMPS (29 Oct 2020)
variable temperature equal 374.0
variable pressure equal 1.0
variable N_steps equal 200000
variable seed equal 100

units metal
boundary p p p
atom_style atomic
read_data structure.lammps
Reading data file ...
  triclinic box = (0.0000000 0.0000000 0.0000000) to (18.580770 18.580770 18.580770) with tilt (0.0000000 0.0000000 0.0000000)
  2 by 3 by 4 MPI processor grid
  reading atoms ...
  512 atoms
  read_data CPU = 0.006 seconds
pair_style nnp dir RuNNer showew yes resetew no maxew 750 showewsum 0 cflength 1.889726124626 cfenergy 0.036749322175655
pair_coeff * * 6.350126530836
timestep 0.0005
fix int all npt temp ${temperature} ${temperature} 0.05 tri ${pressure} ${pressure} 0.5 fixedpoint 0.0 0.0 0.0
fix int all npt temp 374 ${temperature} 0.05 tri ${pressure} ${pressure} 0.5 fixedpoint 0.0 0.0 0.0
fix int all npt temp 374 374 0.05 tri ${pressure} ${pressure} 0.5 fixedpoint 0.0 0.0 0.0
fix int all npt temp 374 374 0.05 tri 1 ${pressure} 0.5 fixedpoint 0.0 0.0 0.0
fix int all npt temp 374 374 0.05 tri 1 1 0.5 fixedpoint 0.0 0.0 0.0
thermo 1
variable thermo equal 0
thermo_style custom v_thermo step time temp epair etotal fmax fnorm press cella cellb cellc cellalpha cellbeta cellgamma density
thermo_modify format line "thermo %8d %10.4f %8.3f %15.5f %15.5f %9.4f %9.4f %9.2f %9.5f %9.5f %9.5f %9.5f %9.5f %9.5f %8.5f"
dump lammpstrj all custom 1 structure.lammpstrj id element x y z
dump_modify lammpstrj pbc yes sort id element H C O
velocity all create ${temperature} ${seed}
velocity all create 374 ${seed}
velocity all create 374 100

run ${N_steps}
run 200000

*******************************************************************************

WELCOME TO n²p², A SOFTWARE PACKAGE FOR NEURAL NETWORK POTENTIALS!
------------------------------------------------------------------

n²p² version  (from git): v2.1.4-1-gb45aafc
             (version.h): v2.1.4
------------------------------------------------------------
Git branch              : master
Git revision            : b45aafc12292c43ea4f575379cb9fcaf5cf20a1d
Compile date/time       : Jun 16 2021 17:18:47
------------------------------------------------------------

Features/Flags:
------------------------------------------------------------
Symmetry function groups     : enabled
Symmetry function cache      : enabled
Timing function available    : available
Asymmetric polynomial SFs    : available
SF low neighbor number check : enabled
SF derivative memory layout  : reduced
MPI explicitly disabled      : no
------------------------------------------------------------

Please cite the following papers when publishing results obtained with n²p²:
-------------------------------------------------------------------------------
 * General citation for n²p² and the LAMMPS interface:

 Singraber, A.; Behler, J.; Dellago, C.
 Library-Based LAMMPS Implementation of High-Dimensional
 Neural Network Potentials.
 J. Chem. Theory Comput. 2019 15 (3), 1827–1840.
 https://doi.org/10.1021/acs.jctc.8b00770
-------------------------------------------------------------------------------
 * Additionally, if you use the NNP training features of n²p²:

 Singraber, A.; Morawietz, T.; Behler, J.; Dellago, C.
 Parallel Multistream Training of High-Dimensional Neural
 Network Potentials.
 J. Chem. Theory Comput. 2019, 15 (5), 3075–3092.
 https://doi.org/10.1021/acs.jctc.8b01092
-------------------------------------------------------------------------------
 * Additionally, if polynomial symmetry functions are used:

 Bircher, M. P.; Singraber, A.; Dellago, C.
 Improved Description of Atomic Environments Using Low-Cost
 Polynomial Functions with Compact Support.
 arXiv:2010.14414 [cond-mat, physics:physics] 2020.
 https://arxiv.org/abs/2010.14414
*******************************************************************************

*** SETUP: SETTINGS FILE ******************************************************

Settings file name: RuNNer/input.nn
Read 1128 lines.
Found 852 lines with keywords.
This settings file defines a short-range only NNP.
*******************************************************************************

*** SETUP: NORMALIZATION ******************************************************

Data set normalization is used.
Mean energy per atom     :  -2.9485152231192296E-01
Conversion factor energy :   9.2484646658324766E+02
Conversion factor length :   2.1820240071923941E+01

Atomic energy offsets are used in addition to data set normalization.
Offsets will be subtracted from reference energies BEFORE normalization is applied.
*******************************************************************************

*** SETUP: ELEMENT MAP ********************************************************

Number of element strings found: 3
Element  0:  H (  1)
Element  1:  C (  6)
Element  2:  O (  8)
*******************************************************************************

*** SETUP: ELEMENTS ***********************************************************

Number of elements is consistent: 3
Atomic energy offsets per element:
Element  0:  -3.75123083E-01
Element  1:  -5.33572749E+00
Element  2:  -1.58336174E+01
Energy offsets are automatically subtracted from reference energies.
*******************************************************************************

*** SETUP: CUTOFF FUNCTIONS ***************************************************

Parameter alpha for inner cutoff: 0.000000
Inner cutoff = Symmetry function cutoff * alpha
Equal cutoff function type for all symmetry functions:
CutoffFunction::CT_COS (1)
x := (r - rc * alpha) / (rc - rc * alpha)
f(x) = 1/2 * (cos(pi*x) + 1)
*******************************************************************************

*** SETUP: SYMMETRY FUNCTIONS *************************************************

Abbreviations:
--------------
ind .... Symmetry function index.
ec ..... Central atom element.
tp ..... Symmetry function type.
sbtp ... Symmetry function subtype (e.g. cutoff type).
e1 ..... Neighbor 1 element.
e2 ..... Neighbor 2 element.
eta .... Gaussian width eta.
rs/rl... Shift distance of Gaussian or left cutoff radius for polynomial.
angl.... Left cutoff angle for polynomial.
angr.... Right cutoff angle for polynomial.
la ..... Angle prefactor lambda.
zeta ... Angle term exponent zeta.
rc ..... Cutoff radius / right cutoff radius for polynomial.
a ...... Free parameter alpha (e.g. cutoff alpha).
ln ..... Line number in settings file.

Short range atomic symmetry functions element  H :
-------------------------------------------------------------------------------------------------
 ind ec tp sbtp e1 e2       eta      rs/rl         rc   angl   angr la zeta    a    ln
-------------------------------------------------------------------------------------------------
   1  H  2  ct1  H    6.944E-03  0.000E+00  1.200E+01                       0.00   156
   2  H  2  ct1  C    6.944E-03  0.000E+00  1.200E+01                       0.00   162
   3  H  2  ct1  O    6.944E-03  0.000E+00  1.200E+01                       0.00   168
   4  H  2  ct1  H    1.389E-02  0.000E+00  1.200E+01                       0.00   157
   5  H  2  ct1  C    1.389E-02  0.000E+00  1.200E+01                       0.00   163
   6  H  2  ct1  O    1.389E-02  0.000E+00  1.200E+01                       0.00   169
   7  H  2  ct1  H    2.778E-02  0.000E+00  1.200E+01                       0.00   158
   8  H  2  ct1  C    2.778E-02  0.000E+00  1.200E+01                       0.00   164
   9  H  2  ct1  O    2.778E-02  0.000E+00  1.200E+01                       0.00   170
  10  H  2  ct1  H    5.556E-02  0.000E+00  1.200E+01                       0.00   159
  11  H  2  ct1  C    5.556E-02  0.000E+00  1.200E+01                       0.00   165
  12  H  2  ct1  O    5.556E-02  0.000E+00  1.200E+01                       0.00   171
  13  H  2  ct1  H    9.168E-02  8.697E+00  1.200E+01                       0.00   653
  14  H  2  ct1  C    9.168E-02  8.697E+00  1.200E+01                       0.00   659
  15  H  2  ct1  O    9.168E-02  8.697E+00  1.200E+01                       0.00   665
  16  H  2  ct1  H    1.111E-01  0.000E+00  1.200E+01                       0.00   160
  17  H  2  ct1  C    1.111E-01  0.000E+00  1.200E+01                       0.00   166
  18  H  2  ct1  O    1.111E-01  0.000E+00  1.200E+01                       0.00   172
  19  H  2  ct1  H    1.745E-01  6.304E+00  1.200E+01                       0.00   652
  20  H  2  ct1  C    1.745E-01  6.304E+00  1.200E+01                       0.00   658
  21  H  2  ct1  O    1.745E-01  6.304E+00  1.200E+01                       0.00   664
  22  H  2  ct1  H    3.322E-01  4.569E+00  1.200E+01                       0.00   651
  23  H  2  ct1  C    3.322E-01  4.569E+00  1.200E+01                       0.00   657
  24  H  2  ct1  O    3.322E-01  4.569E+00  1.200E+01                       0.00   663
  25  H  2  ct1  H    6.325E-01  3.311E+00  1.200E+01                       0.00   650
  26  H  2  ct1  C    6.325E-01  3.311E+00  1.200E+01                       0.00   656
  27  H  2  ct1  O    6.325E-01  3.311E+00  1.200E+01                       0.00   662
  28  H  2  ct1  H    1.204E+00  2.400E+00  1.200E+01                       0.00   649
  29  H  2  ct1  C    1.204E+00  2.400E+00  1.200E+01                       0.00   655
  30  H  2  ct1  O    1.204E+00  2.400E+00  1.200E+01                       0.00   661
  31  H  3  ct1  H  H 6.944E-03  0.000E+00  1.200E+01               -1  1.0 0.00   225
  32  H  3  ct1  H  C 6.944E-03  0.000E+00  1.200E+01               -1  1.0 0.00   236
  33  H  3  ct1  H  O 6.944E-03  0.000E+00  1.200E+01               -1  1.0 0.00   247
  34  H  3  ct1  C  C 6.944E-03  0.000E+00  1.200E+01               -1  1.0 0.00   258
  35  H  3  ct1  C  O 6.944E-03  0.000E+00  1.200E+01               -1  1.0 0.00   269
  36  H  3  ct1  O  O 6.944E-03  0.000E+00  1.200E+01               -1  1.0 0.00   280
  37  H  3  ct1  H  H 6.944E-03  0.000E+00  1.200E+01                1  1.0 0.00   226
  38  H  3  ct1  H  C 6.944E-03  0.000E+00  1.200E+01                1  1.0 0.00   237
  39  H  3  ct1  H  O 6.944E-03  0.000E+00  1.200E+01                1  1.0 0.00   248
  40  H  3  ct1  C  C 6.944E-03  0.000E+00  1.200E+01                1  1.0 0.00   259
  41  H  3  ct1  C  O 6.944E-03  0.000E+00  1.200E+01                1  1.0 0.00   270
  42  H  3  ct1  O  O 6.944E-03  0.000E+00  1.200E+01                1  1.0 0.00   281
  43  H  3  ct1  H  H 1.389E-02  0.000E+00  1.200E+01               -1  1.0 0.00   227
  44  H  3  ct1  H  C 1.389E-02  0.000E+00  1.200E+01               -1  1.0 0.00   238
  45  H  3  ct1  H  O 1.389E-02  0.000E+00  1.200E+01               -1  1.0 0.00   249
  46  H  3  ct1  C  C 1.389E-02  0.000E+00  1.200E+01               -1  1.0 0.00   260
  47  H  3  ct1  C  O 1.389E-02  0.000E+00  1.200E+01               -1  1.0 0.00   271
  48  H  3  ct1  O  O 1.389E-02  0.000E+00  1.200E+01               -1  1.0 0.00   282
  49  H  3  ct1  H  H 1.389E-02  0.000E+00  1.200E+01                1  1.0 0.00   228
  50  H  3  ct1  H  C 1.389E-02  0.000E+00  1.200E+01                1  1.0 0.00   239
  51  H  3  ct1  H  O 1.389E-02  0.000E+00  1.200E+01                1  1.0 0.00   250
  52  H  3  ct1  C  C 1.389E-02  0.000E+00  1.200E+01                1  1.0 0.00   261
  53  H  3  ct1  C  O 1.389E-02  0.000E+00  1.200E+01                1  1.0 0.00   272
  54  H  3  ct1  O  O 1.389E-02  0.000E+00  1.200E+01                1  1.0 0.00   283
  55  H  3  ct1  H  H 2.778E-02  0.000E+00  1.200E+01               -1  1.0 0.00   229
  56  H  3  ct1  H  C 2.778E-02  0.000E+00  1.200E+01               -1  1.0 0.00   240
  57  H  3  ct1  H  O 2.778E-02  0.000E+00  1.200E+01               -1  1.0 0.00   251
  58  H  3  ct1  C  C 2.778E-02  0.000E+00  1.200E+01               -1  1.0 0.00   262
  59  H  3  ct1  C  O 2.778E-02  0.000E+00  1.200E+01               -1  1.0 0.00   273
  60  H  3  ct1  O  O 2.778E-02  0.000E+00  1.200E+01               -1  1.0 0.00   284
  61  H  3  ct1  H  H 2.778E-02  0.000E+00  1.200E+01                1  1.0 0.00   230
  62  H  3  ct1  H  C 2.778E-02  0.000E+00  1.200E+01                1  1.0 0.00   241
  63  H  3  ct1  H  O 2.778E-02  0.000E+00  1.200E+01                1  1.0 0.00   252
  64  H  3  ct1  C  C 2.778E-02  0.000E+00  1.200E+01                1  1.0 0.00   263
  65  H  3  ct1  C  O 2.778E-02  0.000E+00  1.200E+01                1  1.0 0.00   274
  66  H  3  ct1  O  O 2.778E-02  0.000E+00  1.200E+01                1  1.0 0.00   285
  67  H  3  ct1  H  H 5.556E-02  0.000E+00  1.200E+01               -1  1.0 0.00   231
  68  H  3  ct1  H  C 5.556E-02  0.000E+00  1.200E+01               -1  1.0 0.00   242
  69  H  3  ct1  H  O 5.556E-02  0.000E+00  1.200E+01               -1  1.0 0.00   253
  70  H  3  ct1  C  C 5.556E-02  0.000E+00  1.200E+01               -1  1.0 0.00   264
  71  H  3  ct1  C  O 5.556E-02  0.000E+00  1.200E+01               -1  1.0 0.00   275
  72  H  3  ct1  O  O 5.556E-02  0.000E+00  1.200E+01               -1  1.0 0.00   286
  73  H  3  ct1  H  H 5.556E-02  0.000E+00  1.200E+01                1  1.0 0.00   232
  74  H  3  ct1  H  C 5.556E-02  0.000E+00  1.200E+01                1  1.0 0.00   243
  75  H  3  ct1  H  O 5.556E-02  0.000E+00  1.200E+01                1  1.0 0.00   254
  76  H  3  ct1  C  C 5.556E-02  0.000E+00  1.200E+01                1  1.0 0.00   265
  77  H  3  ct1  C  O 5.556E-02  0.000E+00  1.200E+01                1  1.0 0.00   276
  78  H  3  ct1  O  O 5.556E-02  0.000E+00  1.200E+01                1  1.0 0.00   287
  79  H  3  ct1  H  H 9.168E-02  8.697E+00  1.200E+01               -1  1.0 0.00   726
  80  H  3  ct1  H  C 9.168E-02  8.697E+00  1.200E+01               -1  1.0 0.00   737
  81  H  3  ct1  H  O 9.168E-02  8.697E+00  1.200E+01               -1  1.0 0.00   748
  82  H  3  ct1  C  C 9.168E-02  8.697E+00  1.200E+01               -1  1.0 0.00   759
  83  H  3  ct1  C  O 9.168E-02  8.697E+00  1.200E+01               -1  1.0 0.00   770
  84  H  3  ct1  O  O 9.168E-02  8.697E+00  1.200E+01               -1  1.0 0.00   781
  85  H  3  ct1  H  H 9.168E-02  8.697E+00  1.200E+01                1  1.0 0.00   727
  86  H  3  ct1  H  C 9.168E-02  8.697E+00  1.200E+01                1  1.0 0.00   738
  87  H  3  ct1  H  O 9.168E-02  8.697E+00  1.200E+01                1  1.0 0.00   749
  88  H  3  ct1  C  C 9.168E-02  8.697E+00  1.200E+01                1  1.0 0.00   760
  89  H  3  ct1  C  O 9.168E-02  8.697E+00  1.200E+01                1  1.0 0.00   771
  90  H  3  ct1  O  O 9.168E-02  8.697E+00  1.200E+01                1  1.0 0.00   782
  91  H  3  ct1  H  H 1.111E-01  0.000E+00  1.200E+01               -1  1.0 0.00   233
  92  H  3  ct1  H  C 1.111E-01  0.000E+00  1.200E+01               -1  1.0 0.00   244
  93  H  3  ct1  H  O 1.111E-01  0.000E+00  1.200E+01               -1  1.0 0.00   255
  94  H  3  ct1  C  C 1.111E-01  0.000E+00  1.200E+01               -1  1.0 0.00   266
  95  H  3  ct1  C  O 1.111E-01  0.000E+00  1.200E+01               -1  1.0 0.00   277
  96  H  3  ct1  O  O 1.111E-01  0.000E+00  1.200E+01               -1  1.0 0.00   288
  97  H  3  ct1  H  H 1.111E-01  0.000E+00  1.200E+01                1  1.0 0.00   234
  98  H  3  ct1  H  C 1.111E-01  0.000E+00  1.200E+01                1  1.0 0.00   245
  99  H  3  ct1  H  O 1.111E-01  0.000E+00  1.200E+01                1  1.0 0.00   256
 100  H  3  ct1  C  C 1.111E-01  0.000E+00  1.200E+01                1  1.0 0.00   267
 101  H  3  ct1  C  O 1.111E-01  0.000E+00  1.200E+01                1  1.0 0.00   278
 102  H  3  ct1  O  O 1.111E-01  0.000E+00  1.200E+01                1  1.0 0.00   289
 103  H  3  ct1  H  H 1.745E-01  6.304E+00  1.200E+01               -1  1.0 0.00   724
 104  H  3  ct1  H  C 1.745E-01  6.304E+00  1.200E+01               -1  1.0 0.00   735
 105  H  3  ct1  H  O 1.745E-01  6.304E+00  1.200E+01               -1  1.0 0.00   746
 106  H  3  ct1  C  C 1.745E-01  6.304E+00  1.200E+01               -1  1.0 0.00   757
 107  H  3  ct1  C  O 1.745E-01  6.304E+00  1.200E+01               -1  1.0 0.00   768
 108  H  3  ct1  O  O 1.745E-01  6.304E+00  1.200E+01               -1  1.0 0.00   779
 109  H  3  ct1  H  H 1.745E-01  6.304E+00  1.200E+01                1  1.0 0.00   725
 110  H  3  ct1  H  C 1.745E-01  6.304E+00  1.200E+01                1  1.0 0.00   736
 111  H  3  ct1  H  O 1.745E-01  6.304E+00  1.200E+01                1  1.0 0.00   747
 112  H  3  ct1  C  C 1.745E-01  6.304E+00  1.200E+01                1  1.0 0.00   758
 113  H  3  ct1  C  O 1.745E-01  6.304E+00  1.200E+01                1  1.0 0.00   769
 114  H  3  ct1  O  O 1.745E-01  6.304E+00  1.200E+01                1  1.0 0.00   780
 115  H  3  ct1  H  H 3.322E-01  4.569E+00  1.200E+01               -1  1.0 0.00   722
 116  H  3  ct1  H  C 3.322E-01  4.569E+00  1.200E+01               -1  1.0 0.00   733
 117  H  3  ct1  H  O 3.322E-01  4.569E+00  1.200E+01               -1  1.0 0.00   744
 118  H  3  ct1  C  C 3.322E-01  4.569E+00  1.200E+01               -1  1.0 0.00   755
 119  H  3  ct1  C  O 3.322E-01  4.569E+00  1.200E+01               -1  1.0 0.00   766
 120  H  3  ct1  O  O 3.322E-01  4.569E+00  1.200E+01               -1  1.0 0.00   777
 121  H  3  ct1  H  H 3.322E-01  4.569E+00  1.200E+01                1  1.0 0.00   723
 122  H  3  ct1  H  C 3.322E-01  4.569E+00  1.200E+01                1  1.0 0.00   734
 123  H  3  ct1  H  O 3.322E-01  4.569E+00  1.200E+01                1  1.0 0.00   745
 124  H  3  ct1  C  C 3.322E-01  4.569E+00  1.200E+01                1  1.0 0.00   756
 125  H  3  ct1  C  O 3.322E-01  4.569E+00  1.200E+01                1  1.0 0.00   767
 126  H  3  ct1  O  O 3.322E-01  4.569E+00  1.200E+01                1  1.0 0.00   778
 127  H  3  ct1  H  H 6.325E-01  3.311E+00  1.200E+01               -1  1.0 0.00   720
 128  H  3  ct1  H  C 6.325E-01  3.311E+00  1.200E+01               -1  1.0 0.00   731
 129  H  3  ct1  H  O 6.325E-01  3.311E+00  1.200E+01               -1  1.0 0.00   742
 130  H  3  ct1  C  C 6.325E-01  3.311E+00  1.200E+01               -1  1.0 0.00   753
 131  H  3  ct1  C  O 6.325E-01  3.311E+00  1.200E+01               -1  1.0 0.00   764
 132  H  3  ct1  O  O 6.325E-01  3.311E+00  1.200E+01               -1  1.0 0.00   775
 133  H  3  ct1  H  H 6.325E-01  3.311E+00  1.200E+01                1  1.0 0.00   721
 134  H  3  ct1  H  C 6.325E-01  3.311E+00  1.200E+01                1  1.0 0.00   732
 135  H  3  ct1  H  O 6.325E-01  3.311E+00  1.200E+01                1  1.0 0.00   743
 136  H  3  ct1  C  C 6.325E-01  3.311E+00  1.200E+01                1  1.0 0.00   754
 137  H  3  ct1  C  O 6.325E-01  3.311E+00  1.200E+01                1  1.0 0.00   765
 138  H  3  ct1  O  O 6.325E-01  3.311E+00  1.200E+01                1  1.0 0.00   776
 139  H  3  ct1  H  H 1.204E+00  2.400E+00  1.200E+01               -1  1.0 0.00   718
 140  H  3  ct1  H  C 1.204E+00  2.400E+00  1.200E+01               -1  1.0 0.00   729
 141  H  3  ct1  H  O 1.204E+00  2.400E+00  1.200E+01               -1  1.0 0.00   740
 142  H  3  ct1  C  C 1.204E+00  2.400E+00  1.200E+01               -1  1.0 0.00   751
 143  H  3  ct1  C  O 1.204E+00  2.400E+00  1.200E+01               -1  1.0 0.00   762
 144  H  3  ct1  O  O 1.204E+00  2.400E+00  1.200E+01               -1  1.0 0.00   773
 145  H  3  ct1  H  H 1.204E+00  2.400E+00  1.200E+01                1  1.0 0.00   719
 146  H  3  ct1  H  C 1.204E+00  2.400E+00  1.200E+01                1  1.0 0.00   730
 147  H  3  ct1  H  O 1.204E+00  2.400E+00  1.200E+01                1  1.0 0.00   741
 148  H  3  ct1  C  C 1.204E+00  2.400E+00  1.200E+01                1  1.0 0.00   752
 149  H  3  ct1  C  O 1.204E+00  2.400E+00  1.200E+01                1  1.0 0.00   763
 150  H  9  ct1  H  H 6.944E-03  0.000E+00  1.200E+01               -1  1.0 0.00   438
 151  H  9  ct1  H  C 6.944E-03  0.000E+00  1.200E+01               -1  1.0 0.00   449
 152  H  9  ct1  H  O 6.944E-03  0.000E+00  1.200E+01               -1  1.0 0.00   460
 153  H  9  ct1  C  C 6.944E-03  0.000E+00  1.200E+01               -1  1.0 0.00   471
 154  H  9  ct1  C  O 6.944E-03  0.000E+00  1.200E+01               -1  1.0 0.00   482
 155  H  9  ct1  O  O 6.944E-03  0.000E+00  1.200E+01               -1  1.0 0.00   493
 156  H  9  ct1  H  H 6.944E-03  0.000E+00  1.200E+01                1  1.0 0.00   439
 157  H  9  ct1  H  C 6.944E-03  0.000E+00  1.200E+01                1  1.0 0.00   450
 158  H  9  ct1  H  O 6.944E-03  0.000E+00  1.200E+01                1  1.0 0.00   461
 159  H  9  ct1  C  C 6.944E-03  0.000E+00  1.200E+01                1  1.0 0.00   472
 160  H  9  ct1  C  O 6.944E-03  0.000E+00  1.200E+01                1  1.0 0.00   483
 161  H  9  ct1  O  O 6.944E-03  0.000E+00  1.200E+01                1  1.0 0.00   494
 162  H  9  ct1  H  H 1.389E-02  0.000E+00  1.200E+01               -1  1.0 0.00   440
 163  H  9  ct1  H  C 1.389E-02  0.000E+00  1.200E+01               -1  1.0 0.00   451
 164  H  9  ct1  H  O 1.389E-02  0.000E+00  1.200E+01               -1  1.0 0.00   462
 165  H  9  ct1  C  C 1.389E-02  0.000E+00  1.200E+01               -1  1.0 0.00   473
 166  H  9  ct1  C  O 1.389E-02  0.000E+00  1.200E+01               -1  1.0 0.00   484
 167  H  9  ct1  O  O 1.389E-02  0.000E+00  1.200E+01               -1  1.0 0.00   495
 168  H  9  ct1  H  H 1.389E-02  0.000E+00  1.200E+01                1  1.0 0.00   441
 169  H  9  ct1  H  C 1.389E-02  0.000E+00  1.200E+01                1  1.0 0.00   452
 170  H  9  ct1  H  O 1.389E-02  0.000E+00  1.200E+01                1  1.0 0.00   463
 171  H  9  ct1  C  C 1.389E-02  0.000E+00  1.200E+01                1  1.0 0.00   474
 172  H  9  ct1  C  O 1.389E-02  0.000E+00  1.200E+01                1  1.0 0.00   485
 173  H  9  ct1  O  O 1.389E-02  0.000E+00  1.200E+01                1  1.0 0.00   496
 174  H  9  ct1  H  H 2.778E-02  0.000E+00  1.200E+01               -1  1.0 0.00   442
 175  H  9  ct1  H  C 2.778E-02  0.000E+00  1.200E+01               -1  1.0 0.00   453
 176  H  9  ct1  H  O 2.778E-02  0.000E+00  1.200E+01               -1  1.0 0.00   464
 177  H  9  ct1  C  C 2.778E-02  0.000E+00  1.200E+01               -1  1.0 0.00   475
 178  H  9  ct1  C  O 2.778E-02  0.000E+00  1.200E+01               -1  1.0 0.00   486
 179  H  9  ct1  O  O 2.778E-02  0.000E+00  1.200E+01               -1  1.0 0.00   497
 180  H  9  ct1  H  H 2.778E-02  0.000E+00  1.200E+01                1  1.0 0.00   443
 181  H  9  ct1  H  C 2.778E-02  0.000E+00  1.200E+01                1  1.0 0.00   454
 182  H  9  ct1  H  O 2.778E-02  0.000E+00  1.200E+01                1  1.0 0.00   465
 183  H  9  ct1  C  C 2.778E-02  0.000E+00  1.200E+01                1  1.0 0.00   476
 184  H  9  ct1  C  O 2.778E-02  0.000E+00  1.200E+01                1  1.0 0.00   487
 185  H  9  ct1  O  O 2.778E-02  0.000E+00  1.200E+01                1  1.0 0.00   498
 186  H  9  ct1  H  H 5.556E-02  0.000E+00  1.200E+01               -1  1.0 0.00   444
 187  H  9  ct1  H  C 5.556E-02  0.000E+00  1.200E+01               -1  1.0 0.00   455
 188  H  9  ct1  H  O 5.556E-02  0.000E+00  1.200E+01               -1  1.0 0.00   466
 189  H  9  ct1  C  C 5.556E-02  0.000E+00  1.200E+01               -1  1.0 0.00   477
 190  H  9  ct1  C  O 5.556E-02  0.000E+00  1.200E+01               -1  1.0 0.00   488
 191  H  9  ct1  O  O 5.556E-02  0.000E+00  1.200E+01               -1  1.0 0.00   499
 192  H  9  ct1  H  H 5.556E-02  0.000E+00  1.200E+01                1  1.0 0.00   445
 193  H  9  ct1  H  C 5.556E-02  0.000E+00  1.200E+01                1  1.0 0.00   456
 194  H  9  ct1  H  O 5.556E-02  0.000E+00  1.200E+01                1  1.0 0.00   467
 195  H  9  ct1  C  C 5.556E-02  0.000E+00  1.200E+01                1  1.0 0.00   478
 196  H  9  ct1  C  O 5.556E-02  0.000E+00  1.200E+01                1  1.0 0.00   489
 197  H  9  ct1  O  O 5.556E-02  0.000E+00  1.200E+01                1  1.0 0.00   500
 198  H  9  ct1  H  H 9.168E-02  8.697E+00  1.200E+01               -1  1.0 0.00   939
 199  H  9  ct1  H  C 9.168E-02  8.697E+00  1.200E+01               -1  1.0 0.00   950
 200  H  9  ct1  H  O 9.168E-02  8.697E+00  1.200E+01               -1  1.0 0.00   961
 201  H  9  ct1  C  C 9.168E-02  8.697E+00  1.200E+01               -1  1.0 0.00   972
 202  H  9  ct1  C  O 9.168E-02  8.697E+00  1.200E+01               -1  1.0 0.00   983
 203  H  9  ct1  O  O 9.168E-02  8.697E+00  1.200E+01               -1  1.0 0.00   994
 204  H  9  ct1  H  H 9.168E-02  8.697E+00  1.200E+01                1  1.0 0.00   940
 205  H  9  ct1  H  C 9.168E-02  8.697E+00  1.200E+01                1  1.0 0.00   951
 206  H  9  ct1  H  O 9.168E-02  8.697E+00  1.200E+01                1  1.0 0.00   962
 207  H  9  ct1  C  C 9.168E-02  8.697E+00  1.200E+01                1  1.0 0.00   973
 208  H  9  ct1  C  O 9.168E-02  8.697E+00  1.200E+01                1  1.0 0.00   984
 209  H  9  ct1  O  O 9.168E-02  8.697E+00  1.200E+01                1  1.0 0.00   995
 210  H  9  ct1  H  H 1.111E-01  0.000E+00  1.200E+01               -1  1.0 0.00   446
 211  H  9  ct1  H  C 1.111E-01  0.000E+00  1.200E+01               -1  1.0 0.00   457
 212  H  9  ct1  H  O 1.111E-01  0.000E+00  1.200E+01               -1  1.0 0.00   468
 213  H  9  ct1  C  C 1.111E-01  0.000E+00  1.200E+01               -1  1.0 0.00   479
 214  H  9  ct1  C  O 1.111E-01  0.000E+00  1.200E+01               -1  1.0 0.00   490
 215  H  9  ct1  O  O 1.111E-01  0.000E+00  1.200E+01               -1  1.0 0.00   501
 216  H  9  ct1  H  H 1.111E-01  0.000E+00  1.200E+01                1  1.0 0.00   447
 217  H  9  ct1  H  C 1.111E-01  0.000E+00  1.200E+01                1  1.0 0.00   458
 218  H  9  ct1  H  O 1.111E-01  0.000E+00  1.200E+01                1  1.0 0.00   469
 219  H  9  ct1  C  C 1.111E-01  0.000E+00  1.200E+01                1  1.0 0.00   480
 220  H  9  ct1  C  O 1.111E-01  0.000E+00  1.200E+01                1  1.0 0.00   491
 221  H  9  ct1  O  O 1.111E-01  0.000E+00  1.200E+01                1  1.0 0.00   502
 222  H  9  ct1  H  H 1.745E-01  6.304E+00  1.200E+01               -1  1.0 0.00   937
 223  H  9  ct1  H  C 1.745E-01  6.304E+00  1.200E+01               -1  1.0 0.00   948
 224  H  9  ct1  H  O 1.745E-01  6.304E+00  1.200E+01               -1  1.0 0.00   959
 225  H  9  ct1  C  C 1.745E-01  6.304E+00  1.200E+01               -1  1.0 0.00   970
 226  H  9  ct1  C  O 1.745E-01  6.304E+00  1.200E+01               -1  1.0 0.00   981
 227  H  9  ct1  O  O 1.745E-01  6.304E+00  1.200E+01               -1  1.0 0.00   992
 228  H  9  ct1  H  H 1.745E-01  6.304E+00  1.200E+01                1  1.0 0.00   938
 229  H  9  ct1  H  C 1.745E-01  6.304E+00  1.200E+01                1  1.0 0.00   949
 230  H  9  ct1  H  O 1.745E-01  6.304E+00  1.200E+01                1  1.0 0.00   960
 231  H  9  ct1  C  C 1.745E-01  6.304E+00  1.200E+01                1  1.0 0.00   971
 232  H  9  ct1  C  O 1.745E-01  6.304E+00  1.200E+01                1  1.0 0.00   982
 233  H  9  ct1  O  O 1.745E-01  6.304E+00  1.200E+01                1  1.0 0.00   993
 234  H  9  ct1  H  H 3.322E-01  4.569E+00  1.200E+01               -1  1.0 0.00   935
 235  H  9  ct1  H  C 3.322E-01  4.569E+00  1.200E+01               -1  1.0 0.00   946
 236  H  9  ct1  H  O 3.322E-01  4.569E+00  1.200E+01               -1  1.0 0.00   957
 237  H  9  ct1  C  C 3.322E-01  4.569E+00  1.200E+01               -1  1.0 0.00   968
 238  H  9  ct1  C  O 3.322E-01  4.569E+00  1.200E+01               -1  1.0 0.00   979
 239  H  9  ct1  O  O 3.322E-01  4.569E+00  1.200E+01               -1  1.0 0.00   990
 240  H  9  ct1  H  H 3.322E-01  4.569E+00  1.200E+01                1  1.0 0.00   936
 241  H  9  ct1  H  C 3.322E-01  4.569E+00  1.200E+01                1  1.0 0.00   947
 242  H  9  ct1  H  O 3.322E-01  4.569E+00  1.200E+01                1  1.0 0.00   958
 243  H  9  ct1  C  C 3.322E-01  4.569E+00  1.200E+01                1  1.0 0.00   969
 244  H  9  ct1  C  O 3.322E-01  4.569E+00  1.200E+01                1  1.0 0.00   980
 245  H  9  ct1  O  O 3.322E-01  4.569E+00  1.200E+01                1  1.0 0.00   991
 246  H  9  ct1  H  H 6.325E-01  3.311E+00  1.200E+01               -1  1.0 0.00   933
 247  H  9  ct1  H  C 6.325E-01  3.311E+00  1.200E+01               -1  1.0 0.00   944
 248  H  9  ct1  H  O 6.325E-01  3.311E+00  1.200E+01               -1  1.0 0.00   955
 249  H  9  ct1  C  C 6.325E-01  3.311E+00  1.200E+01               -1  1.0 0.00   966
 250  H  9  ct1  C  O 6.325E-01  3.311E+00  1.200E+01               -1  1.0 0.00   977
 251  H  9  ct1  O  O 6.325E-01  3.311E+00  1.200E+01               -1  1.0 0.00   988
 252  H  9  ct1  H  H 6.325E-01  3.311E+00  1.200E+01                1  1.0 0.00   934
 253  H  9  ct1  H  C 6.325E-01  3.311E+00  1.200E+01                1  1.0 0.00   945
 254  H  9  ct1  H  O 6.325E-01  3.311E+00  1.200E+01                1  1.0 0.00   956
 255  H  9  ct1  C  C 6.325E-01  3.311E+00  1.200E+01                1  1.0 0.00   967
 256  H  9  ct1  C  O 6.325E-01  3.311E+00  1.200E+01                1  1.0 0.00   978
 257  H  9  ct1  O  O 6.325E-01  3.311E+00  1.200E+01                1  1.0 0.00   989
 258  H  9  ct1  H  H 1.204E+00  2.400E+00  1.200E+01               -1  1.0 0.00   931
 259  H  9  ct1  H  C 1.204E+00  2.400E+00  1.200E+01               -1  1.0 0.00   942
 260  H  9  ct1  H  O 1.204E+00  2.400E+00  1.200E+01               -1  1.0 0.00   953
 261  H  9  ct1  C  C 1.204E+00  2.400E+00  1.200E+01               -1  1.0 0.00   964
 262  H  9  ct1  C  O 1.204E+00  2.400E+00  1.200E+01               -1  1.0 0.00   975
 263  H  9  ct1  O  O 1.204E+00  2.400E+00  1.200E+01               -1  1.0 0.00   986
 264  H  9  ct1  H  H 1.204E+00  2.400E+00  1.200E+01                1  1.0 0.00   932
 265  H  9  ct1  H  C 1.204E+00  2.400E+00  1.200E+01                1  1.0 0.00   943
 266  H  9  ct1  H  O 1.204E+00  2.400E+00  1.200E+01                1  1.0 0.00   954
 267  H  9  ct1  C  C 1.204E+00  2.400E+00  1.200E+01                1  1.0 0.00   965
 268  H  9  ct1  C  O 1.204E+00  2.400E+00  1.200E+01                1  1.0 0.00   976
 269  H  9  ct1  O  O 1.204E+00  2.400E+00  1.200E+01                1  1.0 0.00   987
-------------------------------------------------------------------------------------------------
Short range atomic symmetry functions element  C :
-------------------------------------------------------------------------------------------------
 ind ec tp sbtp e1 e2       eta      rs/rl         rc   angl   angr la zeta    a    ln
-------------------------------------------------------------------------------------------------
   1  C  2  ct1  H    6.944E-03  0.000E+00  1.200E+01                       0.00   174
   2  C  2  ct1  C    6.944E-03  0.000E+00  1.200E+01                       0.00   180
   3  C  2  ct1  O    6.944E-03  0.000E+00  1.200E+01                       0.00   186
   4  C  2  ct1  H    1.389E-02  0.000E+00  1.200E+01                       0.00   175
   5  C  2  ct1  C    1.389E-02  0.000E+00  1.200E+01                       0.00   181
   6  C  2  ct1  O    1.389E-02  0.000E+00  1.200E+01                       0.00   187
   7  C  2  ct1  H    2.778E-02  0.000E+00  1.200E+01                       0.00   176
   8  C  2  ct1  C    2.778E-02  0.000E+00  1.200E+01                       0.00   182
   9  C  2  ct1  O    2.778E-02  0.000E+00  1.200E+01                       0.00   188
  10  C  2  ct1  H    5.556E-02  0.000E+00  1.200E+01                       0.00   177
  11  C  2  ct1  C    5.556E-02  0.000E+00  1.200E+01                       0.00   183
  12  C  2  ct1  O    5.556E-02  0.000E+00  1.200E+01                       0.00   189
  13  C  2  ct1  H    9.168E-02  8.697E+00  1.200E+01                       0.00   671
  14  C  2  ct1  C    9.168E-02  8.697E+00  1.200E+01                       0.00   677
  15  C  2  ct1  O    9.168E-02  8.697E+00  1.200E+01                       0.00   683
  16  C  2  ct1  H    1.111E-01  0.000E+00  1.200E+01                       0.00   178
  17  C  2  ct1  C    1.111E-01  0.000E+00  1.200E+01                       0.00   184
  18  C  2  ct1  O    1.111E-01  0.000E+00  1.200E+01                       0.00   190
  19  C  2  ct1  H    1.745E-01  6.304E+00  1.200E+01                       0.00   670
  20  C  2  ct1  C    1.745E-01  6.304E+00  1.200E+01                       0.00   676
  21  C  2  ct1  O    1.745E-01  6.304E+00  1.200E+01                       0.00   682
  22  C  2  ct1  H    3.322E-01  4.569E+00  1.200E+01                       0.00   669
  23  C  2  ct1  C    3.322E-01  4.569E+00  1.200E+01                       0.00   675
  24  C  2  ct1  O    3.322E-01  4.569E+00  1.200E+01                       0.00   681
  25  C  2  ct1  H    6.325E-01  3.311E+00  1.200E+01                       0.00   668
  26  C  2  ct1  C    6.325E-01  3.311E+00  1.200E+01                       0.00   674
  27  C  2  ct1  O    6.325E-01  3.311E+00  1.200E+01                       0.00   680
  28  C  2  ct1  H    1.204E+00  2.400E+00  1.200E+01                       0.00   667
  29  C  2  ct1  C    1.204E+00  2.400E+00  1.200E+01                       0.00   673
  30  C  2  ct1  O    1.204E+00  2.400E+00  1.200E+01                       0.00   679
  31  C  3  ct1  H  H 6.944E-03  0.000E+00  1.200E+01               -1  1.0 0.00   291
  32  C  3  ct1  H  C 6.944E-03  0.000E+00  1.200E+01               -1  1.0 0.00   302
  33  C  3  ct1  H  O 6.944E-03  0.000E+00  1.200E+01               -1  1.0 0.00   313
  34  C  3  ct1  C  C 6.944E-03  0.000E+00  1.200E+01               -1  1.0 0.00   324
  35  C  3  ct1  C  O 6.944E-03  0.000E+00  1.200E+01               -1  1.0 0.00   335
  36  C  3  ct1  O  O 6.944E-03  0.000E+00  1.200E+01               -1  1.0 0.00   346
  37  C  3  ct1  H  H 6.944E-03  0.000E+00  1.200E+01                1  1.0 0.00   292
  38  C  3  ct1  H  C 6.944E-03  0.000E+00  1.200E+01                1  1.0 0.00   303
  39  C  3  ct1  H  O 6.944E-03  0.000E+00  1.200E+01                1  1.0 0.00   314
  40  C  3  ct1  C  C 6.944E-03  0.000E+00  1.200E+01                1  1.0 0.00   325
  41  C  3  ct1  C  O 6.944E-03  0.000E+00  1.200E+01                1  1.0 0.00   336
  42  C  3  ct1  O  O 6.944E-03  0.000E+00  1.200E+01                1  1.0 0.00   347
  43  C  3  ct1  H  H 1.389E-02  0.000E+00  1.200E+01               -1  1.0 0.00   293
  44  C  3  ct1  H  C 1.389E-02  0.000E+00  1.200E+01               -1  1.0 0.00   304
  45  C  3  ct1  H  O 1.389E-02  0.000E+00  1.200E+01               -1  1.0 0.00   315
  46  C  3  ct1  C  C 1.389E-02  0.000E+00  1.200E+01               -1  1.0 0.00   326
  47  C  3  ct1  C  O 1.389E-02  0.000E+00  1.200E+01               -1  1.0 0.00   337
  48  C  3  ct1  O  O 1.389E-02  0.000E+00  1.200E+01               -1  1.0 0.00   348
  49  C  3  ct1  H  H 1.389E-02  0.000E+00  1.200E+01                1  1.0 0.00   294
  50  C  3  ct1  H  C 1.389E-02  0.000E+00  1.200E+01                1  1.0 0.00   305
  51  C  3  ct1  H  O 1.389E-02  0.000E+00  1.200E+01                1  1.0 0.00   316
  52  C  3  ct1  C  C 1.389E-02  0.000E+00  1.200E+01                1  1.0 0.00   327
  53  C  3  ct1  C  O 1.389E-02  0.000E+00  1.200E+01                1  1.0 0.00   338
  54  C  3  ct1  O  O 1.389E-02  0.000E+00  1.200E+01                1  1.0 0.00   349
  55  C  3  ct1  H  H 2.778E-02  0.000E+00  1.200E+01               -1  1.0 0.00   295
  56  C  3  ct1  H  C 2.778E-02  0.000E+00  1.200E+01               -1  1.0 0.00   306
  57  C  3  ct1  H  O 2.778E-02  0.000E+00  1.200E+01               -1  1.0 0.00   317
  58  C  3  ct1  C  C 2.778E-02  0.000E+00  1.200E+01               -1  1.0 0.00   328
  59  C  3  ct1  C  O 2.778E-02  0.000E+00  1.200E+01               -1  1.0 0.00   339
  60  C  3  ct1  O  O 2.778E-02  0.000E+00  1.200E+01               -1  1.0 0.00   350
  61  C  3  ct1  H  H 2.778E-02  0.000E+00  1.200E+01                1  1.0 0.00   296
  62  C  3  ct1  H  C 2.778E-02  0.000E+00  1.200E+01                1  1.0 0.00   307
  63  C  3  ct1  H  O 2.778E-02  0.000E+00  1.200E+01                1  1.0 0.00   318
  64  C  3  ct1  C  C 2.778E-02  0.000E+00  1.200E+01                1  1.0 0.00   329
  65  C  3  ct1  C  O 2.778E-02  0.000E+00  1.200E+01                1  1.0 0.00   340
  66  C  3  ct1  O  O 2.778E-02  0.000E+00  1.200E+01                1  1.0 0.00   351
  67  C  3  ct1  H  H 5.556E-02  0.000E+00  1.200E+01               -1  1.0 0.00   297
  68  C  3  ct1  H  C 5.556E-02  0.000E+00  1.200E+01               -1  1.0 0.00   308
  69  C  3  ct1  H  O 5.556E-02  0.000E+00  1.200E+01               -1  1.0 0.00   319
  70  C  3  ct1  C  C 5.556E-02  0.000E+00  1.200E+01               -1  1.0 0.00   330
  71  C  3  ct1  C  O 5.556E-02  0.000E+00  1.200E+01               -1  1.0 0.00   341
  72  C  3  ct1  O  O 5.556E-02  0.000E+00  1.200E+01               -1  1.0 0.00   352
  73  C  3  ct1  H  H 5.556E-02  0.000E+00  1.200E+01                1  1.0 0.00   298
  74  C  3  ct1  H  C 5.556E-02  0.000E+00  1.200E+01                1  1.0 0.00   309
  75  C  3  ct1  H  O 5.556E-02  0.000E+00  1.200E+01                1  1.0 0.00   320
  76  C  3  ct1  C  C 5.556E-02  0.000E+00  1.200E+01                1  1.0 0.00   331
  77  C  3  ct1  C  O 5.556E-02  0.000E+00  1.200E+01                1  1.0 0.00   342
  78  C  3  ct1  O  O 5.556E-02  0.000E+00  1.200E+01                1  1.0 0.00   353
  79  C  3  ct1  H  H 9.168E-02  8.697E+00  1.200E+01               -1  1.0 0.00   792
  80  C  3  ct1  H  C 9.168E-02  8.697E+00  1.200E+01               -1  1.0 0.00   803
  81  C  3  ct1  H  O 9.168E-02  8.697E+00  1.200E+01               -1  1.0 0.00   814
  82  C  3  ct1  C  C 9.168E-02  8.697E+00  1.200E+01               -1  1.0 0.00   825
  83  C  3  ct1  C  O 9.168E-02  8.697E+00  1.200E+01               -1  1.0 0.00   836
  84  C  3  ct1  O  O 9.168E-02  8.697E+00  1.200E+01               -1  1.0 0.00   847
  85  C  3  ct1  H  H 9.168E-02  8.697E+00  1.200E+01                1  1.0 0.00   793
  86  C  3  ct1  H  C 9.168E-02  8.697E+00  1.200E+01                1  1.0 0.00   804
  87  C  3  ct1  H  O 9.168E-02  8.697E+00  1.200E+01                1  1.0 0.00   815
  88  C  3  ct1  C  C 9.168E-02  8.697E+00  1.200E+01                1  1.0 0.00   826
  89  C  3  ct1  C  O 9.168E-02  8.697E+00  1.200E+01                1  1.0 0.00   837
  90  C  3  ct1  O  O 9.168E-02  8.697E+00  1.200E+01                1  1.0 0.00   848
  91  C  3  ct1  H  H 1.111E-01  0.000E+00  1.200E+01               -1  1.0 0.00   299
  92  C  3  ct1  H  C 1.111E-01  0.000E+00  1.200E+01               -1  1.0 0.00   310
  93  C  3  ct1  H  O 1.111E-01  0.000E+00  1.200E+01               -1  1.0 0.00   321
  94  C  3  ct1  C  C 1.111E-01  0.000E+00  1.200E+01               -1  1.0 0.00   332
  95  C  3  ct1  C  O 1.111E-01  0.000E+00  1.200E+01               -1  1.0 0.00   343
  96  C  3  ct1  O  O 1.111E-01  0.000E+00  1.200E+01               -1  1.0 0.00   354
  97  C  3  ct1  H  H 1.111E-01  0.000E+00  1.200E+01                1  1.0 0.00   300
  98  C  3  ct1  H  C 1.111E-01  0.000E+00  1.200E+01                1  1.0 0.00   311
  99  C  3  ct1  H  O 1.111E-01  0.000E+00  1.200E+01                1  1.0 0.00   322
 100  C  3  ct1  C  C 1.111E-01  0.000E+00  1.200E+01                1  1.0 0.00   333
 101  C  3  ct1  C  O 1.111E-01  0.000E+00  1.200E+01                1  1.0 0.00   344
 102  C  3  ct1  O  O 1.111E-01  0.000E+00  1.200E+01                1  1.0 0.00   355
 103  C  3  ct1  H  H 1.745E-01  6.304E+00  1.200E+01               -1  1.0 0.00   790
 104  C  3  ct1  H  C 1.745E-01  6.304E+00  1.200E+01               -1  1.0 0.00   801
 105  C  3  ct1  H  O 1.745E-01  6.304E+00  1.200E+01               -1  1.0 0.00   812
 106  C  3  ct1  C  C 1.745E-01  6.304E+00  1.200E+01               -1  1.0 0.00   823
 107  C  3  ct1  C  O 1.745E-01  6.304E+00  1.200E+01               -1  1.0 0.00   834
 108  C  3  ct1  O  O 1.745E-01  6.304E+00  1.200E+01               -1  1.0 0.00   845
 109  C  3  ct1  H  H 1.745E-01  6.304E+00  1.200E+01                1  1.0 0.00   791
 110  C  3  ct1  H  C 1.745E-01  6.304E+00  1.200E+01                1  1.0 0.00   802
 111  C  3  ct1  H  O 1.745E-01  6.304E+00  1.200E+01                1  1.0 0.00   813
 112  C  3  ct1  C  C 1.745E-01  6.304E+00  1.200E+01                1  1.0 0.00   824
 113  C  3  ct1  C  O 1.745E-01  6.304E+00  1.200E+01                1  1.0 0.00   835
 114  C  3  ct1  O  O 1.745E-01  6.304E+00  1.200E+01                1  1.0 0.00   846
 115  C  3  ct1  H  H 3.322E-01  4.569E+00  1.200E+01               -1  1.0 0.00   788
 116  C  3  ct1  H  C 3.322E-01  4.569E+00  1.200E+01               -1  1.0 0.00   799
 117  C  3  ct1  H  O 3.322E-01  4.569E+00  1.200E+01               -1  1.0 0.00   810
 118  C  3  ct1  C  C 3.322E-01  4.569E+00  1.200E+01               -1  1.0 0.00   821
 119  C  3  ct1  C  O 3.322E-01  4.569E+00  1.200E+01               -1  1.0 0.00   832
 120  C  3  ct1  O  O 3.322E-01  4.569E+00  1.200E+01               -1  1.0 0.00   843
 121  C  3  ct1  H  H 3.322E-01  4.569E+00  1.200E+01                1  1.0 0.00   789
 122  C  3  ct1  H  C 3.322E-01  4.569E+00  1.200E+01                1  1.0 0.00   800
 123  C  3  ct1  H  O 3.322E-01  4.569E+00  1.200E+01                1  1.0 0.00   811
 124  C  3  ct1  C  C 3.322E-01  4.569E+00  1.200E+01                1  1.0 0.00   822
 125  C  3  ct1  C  O 3.322E-01  4.569E+00  1.200E+01                1  1.0 0.00   833
 126  C  3  ct1  O  O 3.322E-01  4.569E+00  1.200E+01                1  1.0 0.00   844
 127  C  3  ct1  H  H 6.325E-01  3.311E+00  1.200E+01               -1  1.0 0.00   786
 128  C  3  ct1  H  C 6.325E-01  3.311E+00  1.200E+01               -1  1.0 0.00   797
 129  C  3  ct1  H  O 6.325E-01  3.311E+00  1.200E+01               -1  1.0 0.00   808
 130  C  3  ct1  C  C 6.325E-01  3.311E+00  1.200E+01               -1  1.0 0.00   819
 131  C  3  ct1  C  O 6.325E-01  3.311E+00  1.200E+01               -1  1.0 0.00   830
 132  C  3  ct1  O  O 6.325E-01  3.311E+00  1.200E+01               -1  1.0 0.00   841
 133  C  3  ct1  H  H 6.325E-01  3.311E+00  1.200E+01                1  1.0 0.00   787
 134  C  3  ct1  H  C 6.325E-01  3.311E+00  1.200E+01                1  1.0 0.00   798
 135  C  3  ct1  H  O 6.325E-01  3.311E+00  1.200E+01                1  1.0 0.00   809
 136  C  3  ct1  C  C 6.325E-01  3.311E+00  1.200E+01                1  1.0 0.00   820
 137  C  3  ct1  C  O 6.325E-01  3.311E+00  1.200E+01                1  1.0 0.00   831
 138  C  3  ct1  O  O 6.325E-01  3.311E+00  1.200E+01                1  1.0 0.00   842
 139  C  3  ct1  H  H 1.204E+00  2.400E+00  1.200E+01               -1  1.0 0.00   784
 140  C  3  ct1  H  C 1.204E+00  2.400E+00  1.200E+01               -1  1.0 0.00   795
 141  C  3  ct1  H  O 1.204E+00  2.400E+00  1.200E+01               -1  1.0 0.00   806
 142  C  3  ct1  C  C 1.204E+00  2.400E+00  1.200E+01               -1  1.0 0.00   817
 143  C  3  ct1  C  O 1.204E+00  2.400E+00  1.200E+01               -1  1.0 0.00   828
 144  C  3  ct1  H  H 1.204E+00  2.400E+00  1.200E+01                1  1.0 0.00   785
 145  C  3  ct1  H  C 1.204E+00  2.400E+00  1.200E+01                1  1.0 0.00   796
 146  C  3  ct1  H  O 1.204E+00  2.400E+00  1.200E+01                1  1.0 0.00   807
 147  C  3  ct1  C  C 1.204E+00  2.400E+00  1.200E+01                1  1.0 0.00   818
 148  C  3  ct1  C  O 1.204E+00  2.400E+00  1.200E+01                1  1.0 0.00   829
 149  C  9  ct1  H  H 6.944E-03  0.000E+00  1.200E+01               -1  1.0 0.00   504
 150  C  9  ct1  H  C 6.944E-03  0.000E+00  1.200E+01               -1  1.0 0.00   515
 151  C  9  ct1  H  O 6.944E-03  0.000E+00  1.200E+01               -1  1.0 0.00   526
 152  C  9  ct1  C  C 6.944E-03  0.000E+00  1.200E+01               -1  1.0 0.00   537
 153  C  9  ct1  C  O 6.944E-03  0.000E+00  1.200E+01               -1  1.0 0.00   548
 154  C  9  ct1  O  O 6.944E-03  0.000E+00  1.200E+01               -1  1.0 0.00   559
 155  C  9  ct1  H  H 6.944E-03  0.000E+00  1.200E+01                1  1.0 0.00   505
 156  C  9  ct1  H  C 6.944E-03  0.000E+00  1.200E+01                1  1.0 0.00   516
 157  C  9  ct1  H  O 6.944E-03  0.000E+00  1.200E+01                1  1.0 0.00   527
 158  C  9  ct1  C  C 6.944E-03  0.000E+00  1.200E+01                1  1.0 0.00   538
 159  C  9  ct1  C  O 6.944E-03  0.000E+00  1.200E+01                1  1.0 0.00   549
 160  C  9  ct1  O  O 6.944E-03  0.000E+00  1.200E+01                1  1.0 0.00   560
 161  C  9  ct1  H  H 1.389E-02  0.000E+00  1.200E+01               -1  1.0 0.00   506
 162  C  9  ct1  H  C 1.389E-02  0.000E+00  1.200E+01               -1  1.0 0.00   517
 163  C  9  ct1  H  O 1.389E-02  0.000E+00  1.200E+01               -1  1.0 0.00   528
 164  C  9  ct1  C  C 1.389E-02  0.000E+00  1.200E+01               -1  1.0 0.00   539
 165  C  9  ct1  C  O 1.389E-02  0.000E+00  1.200E+01               -1  1.0 0.00   550
 166  C  9  ct1  O  O 1.389E-02  0.000E+00  1.200E+01               -1  1.0 0.00   561
 167  C  9  ct1  H  H 1.389E-02  0.000E+00  1.200E+01                1  1.0 0.00   507
 168  C  9  ct1  H  C 1.389E-02  0.000E+00  1.200E+01                1  1.0 0.00   518
 169  C  9  ct1  H  O 1.389E-02  0.000E+00  1.200E+01                1  1.0 0.00   529
 170  C  9  ct1  C  C 1.389E-02  0.000E+00  1.200E+01                1  1.0 0.00   540
 171  C  9  ct1  C  O 1.389E-02  0.000E+00  1.200E+01                1  1.0 0.00   551
 172  C  9  ct1  O  O 1.389E-02  0.000E+00  1.200E+01                1  1.0 0.00   562
 173  C  9  ct1  H  H 2.778E-02  0.000E+00  1.200E+01               -1  1.0 0.00   508
 174  C  9  ct1  H  C 2.778E-02  0.000E+00  1.200E+01               -1  1.0 0.00   519
 175  C  9  ct1  H  O 2.778E-02  0.000E+00  1.200E+01               -1  1.0 0.00   530
 176  C  9  ct1  C  C 2.778E-02  0.000E+00  1.200E+01               -1  1.0 0.00   541
 177  C  9  ct1  C  O 2.778E-02  0.000E+00  1.200E+01               -1  1.0 0.00   552
 178  C  9  ct1  O  O 2.778E-02  0.000E+00  1.200E+01               -1  1.0 0.00   563
 179  C  9  ct1  H  H 2.778E-02  0.000E+00  1.200E+01                1  1.0 0.00   509
 180  C  9  ct1  H  C 2.778E-02  0.000E+00  1.200E+01                1  1.0 0.00   520
 181  C  9  ct1  H  O 2.778E-02  0.000E+00  1.200E+01                1  1.0 0.00   531
 182  C  9  ct1  C  C 2.778E-02  0.000E+00  1.200E+01                1  1.0 0.00   542
 183  C  9  ct1  C  O 2.778E-02  0.000E+00  1.200E+01                1  1.0 0.00   553
 184  C  9  ct1  O  O 2.778E-02  0.000E+00  1.200E+01                1  1.0 0.00   564
 185  C  9  ct1  H  H 5.556E-02  0.000E+00  1.200E+01               -1  1.0 0.00   510
 186  C  9  ct1  H  C 5.556E-02  0.000E+00  1.200E+01               -1  1.0 0.00   521
 187  C  9  ct1  H  O 5.556E-02  0.000E+00  1.200E+01               -1  1.0 0.00   532
 188  C  9  ct1  C  C 5.556E-02  0.000E+00  1.200E+01               -1  1.0 0.00   543
 189  C  9  ct1  C  O 5.556E-02  0.000E+00  1.200E+01               -1  1.0 0.00   554
 190  C  9  ct1  O  O 5.556E-02  0.000E+00  1.200E+01               -1  1.0 0.00   565
 191  C  9  ct1  H  H 5.556E-02  0.000E+00  1.200E+01                1  1.0 0.00   511
 192  C  9  ct1  H  C 5.556E-02  0.000E+00  1.200E+01                1  1.0 0.00   522
 193  C  9  ct1  H  O 5.556E-02  0.000E+00  1.200E+01                1  1.0 0.00   533
 194  C  9  ct1  C  C 5.556E-02  0.000E+00  1.200E+01                1  1.0 0.00   544
 195  C  9  ct1  C  O 5.556E-02  0.000E+00  1.200E+01                1  1.0 0.00   555
 196  C  9  ct1  O  O 5.556E-02  0.000E+00  1.200E+01                1  1.0 0.00   566
 197  C  9  ct1  H  H 9.168E-02  8.697E+00  1.200E+01               -1  1.0 0.00  1005
 198  C  9  ct1  H  C 9.168E-02  8.697E+00  1.200E+01               -1  1.0 0.00  1016
 199  C  9  ct1  H  O 9.168E-02  8.697E+00  1.200E+01               -1  1.0 0.00  1027
 200  C  9  ct1  C  C 9.168E-02  8.697E+00  1.200E+01               -1  1.0 0.00  1038
 201  C  9  ct1  C  O 9.168E-02  8.697E+00  1.200E+01               -1  1.0 0.00  1049
 202  C  9  ct1  O  O 9.168E-02  8.697E+00  1.200E+01               -1  1.0 0.00  1060
 203  C  9  ct1  H  H 9.168E-02  8.697E+00  1.200E+01                1  1.0 0.00  1006
 204  C  9  ct1  H  C 9.168E-02  8.697E+00  1.200E+01                1  1.0 0.00  1017
 205  C  9  ct1  H  O 9.168E-02  8.697E+00  1.200E+01                1  1.0 0.00  1028
 206  C  9  ct1  C  C 9.168E-02  8.697E+00  1.200E+01                1  1.0 0.00  1039
 207  C  9  ct1  C  O 9.168E-02  8.697E+00  1.200E+01                1  1.0 0.00  1050
 208  C  9  ct1  O  O 9.168E-02  8.697E+00  1.200E+01                1  1.0 0.00  1061
 209  C  9  ct1  H  H 1.111E-01  0.000E+00  1.200E+01               -1  1.0 0.00   512
 210  C  9  ct1  H  C 1.111E-01  0.000E+00  1.200E+01               -1  1.0 0.00   523
 211  C  9  ct1  H  O 1.111E-01  0.000E+00  1.200E+01               -1  1.0 0.00   534
 212  C  9  ct1  C  C 1.111E-01  0.000E+00  1.200E+01               -1  1.0 0.00   545
 213  C  9  ct1  C  O 1.111E-01  0.000E+00  1.200E+01               -1  1.0 0.00   556
 214  C  9  ct1  O  O 1.111E-01  0.000E+00  1.200E+01               -1  1.0 0.00   567
 215  C  9  ct1  H  H 1.111E-01  0.000E+00  1.200E+01                1  1.0 0.00   513
 216  C  9  ct1  H  C 1.111E-01  0.000E+00  1.200E+01                1  1.0 0.00   524
 217  C  9  ct1  H  O 1.111E-01  0.000E+00  1.200E+01                1  1.0 0.00   535
 218  C  9  ct1  C  C 1.111E-01  0.000E+00  1.200E+01                1  1.0 0.00   546
 219  C  9  ct1  C  O 1.111E-01  0.000E+00  1.200E+01                1  1.0 0.00   557
 220  C  9  ct1  O  O 1.111E-01  0.000E+00  1.200E+01                1  1.0 0.00   568
 221  C  9  ct1  H  H 1.745E-01  6.304E+00  1.200E+01               -1  1.0 0.00  1003
 222  C  9  ct1  H  C 1.745E-01  6.304E+00  1.200E+01               -1  1.0 0.00  1014
 223  C  9  ct1  H  O 1.745E-01  6.304E+00  1.200E+01               -1  1.0 0.00  1025
 224  C  9  ct1  C  C 1.745E-01  6.304E+00  1.200E+01               -1  1.0 0.00  1036
 225  C  9  ct1  C  O 1.745E-01  6.304E+00  1.200E+01               -1  1.0 0.00  1047
 226  C  9  ct1  O  O 1.745E-01  6.304E+00  1.200E+01               -1  1.0 0.00  1058
 227  C  9  ct1  H  H 1.745E-01  6.304E+00  1.200E+01                1  1.0 0.00  1004
 228  C  9  ct1  H  C 1.745E-01  6.304E+00  1.200E+01                1  1.0 0.00  1015
 229  C  9  ct1  H  O 1.745E-01  6.304E+00  1.200E+01                1  1.0 0.00  1026
 230  C  9  ct1  C  C 1.745E-01  6.304E+00  1.200E+01                1  1.0 0.00  1037
 231  C  9  ct1  C  O 1.745E-01  6.304E+00  1.200E+01                1  1.0 0.00  1048
 232  C  9  ct1  O  O 1.745E-01  6.304E+00  1.200E+01                1  1.0 0.00  1059
 233  C  9  ct1  H  H 3.322E-01  4.569E+00  1.200E+01               -1  1.0 0.00  1001
 234  C  9  ct1  H  C 3.322E-01  4.569E+00  1.200E+01               -1  1.0 0.00  1012
 235  C  9  ct1  H  O 3.322E-01  4.569E+00  1.200E+01               -1  1.0 0.00  1023
 236  C  9  ct1  C  C 3.322E-01  4.569E+00  1.200E+01               -1  1.0 0.00  1034
 237  C  9  ct1  C  O 3.322E-01  4.569E+00  1.200E+01               -1  1.0 0.00  1045
 238  C  9  ct1  O  O 3.322E-01  4.569E+00  1.200E+01               -1  1.0 0.00  1056
 239  C  9  ct1  H  H 3.322E-01  4.569E+00  1.200E+01                1  1.0 0.00  1002
 240  C  9  ct1  H  C 3.322E-01  4.569E+00  1.200E+01                1  1.0 0.00  1013
 241  C  9  ct1  H  O 3.322E-01  4.569E+00  1.200E+01                1  1.0 0.00  1024
 242  C  9  ct1  C  C 3.322E-01  4.569E+00  1.200E+01                1  1.0 0.00  1035
 243  C  9  ct1  C  O 3.322E-01  4.569E+00  1.200E+01                1  1.0 0.00  1046
 244  C  9  ct1  O  O 3.322E-01  4.569E+00  1.200E+01                1  1.0 0.00  1057
 245  C  9  ct1  H  H 6.325E-01  3.311E+00  1.200E+01               -1  1.0 0.00   999
 246  C  9  ct1  H  C 6.325E-01  3.311E+00  1.200E+01               -1  1.0 0.00  1010
 247  C  9  ct1  H  O 6.325E-01  3.311E+00  1.200E+01               -1  1.0 0.00  1021
 248  C  9  ct1  C  C 6.325E-01  3.311E+00  1.200E+01               -1  1.0 0.00  1032
 249  C  9  ct1  C  O 6.325E-01  3.311E+00  1.200E+01               -1  1.0 0.00  1043
 250  C  9  ct1  O  O 6.325E-01  3.311E+00  1.200E+01               -1  1.0 0.00  1054
 251  C  9  ct1  H  H 6.325E-01  3.311E+00  1.200E+01                1  1.0 0.00  1000
 252  C  9  ct1  H  C 6.325E-01  3.311E+00  1.200E+01                1  1.0 0.00  1011
 253  C  9  ct1  H  O 6.325E-01  3.311E+00  1.200E+01                1  1.0 0.00  1022
 254  C  9  ct1  C  C 6.325E-01  3.311E+00  1.200E+01                1  1.0 0.00  1033
 255  C  9  ct1  C  O 6.325E-01  3.311E+00  1.200E+01                1  1.0 0.00  1044
 256  C  9  ct1  O  O 6.325E-01  3.311E+00  1.200E+01                1  1.0 0.00  1055
 257  C  9  ct1  H  H 1.204E+00  2.400E+00  1.200E+01               -1  1.0 0.00   997
 258  C  9  ct1  H  C 1.204E+00  2.400E+00  1.200E+01               -1  1.0 0.00  1008
 259  C  9  ct1  H  O 1.204E+00  2.400E+00  1.200E+01               -1  1.0 0.00  1019
 260  C  9  ct1  C  C 1.204E+00  2.400E+00  1.200E+01               -1  1.0 0.00  1030
 261  C  9  ct1  C  O 1.204E+00  2.400E+00  1.200E+01               -1  1.0 0.00  1041
 262  C  9  ct1  H  H 1.204E+00  2.400E+00  1.200E+01                1  1.0 0.00   998
 263  C  9  ct1  H  C 1.204E+00  2.400E+00  1.200E+01                1  1.0 0.00  1009
 264  C  9  ct1  H  O 1.204E+00  2.400E+00  1.200E+01                1  1.0 0.00  1020
 265  C  9  ct1  C  C 1.204E+00  2.400E+00  1.200E+01                1  1.0 0.00  1031
 266  C  9  ct1  C  O 1.204E+00  2.400E+00  1.200E+01                1  1.0 0.00  1042
-------------------------------------------------------------------------------------------------
Short range atomic symmetry functions element  O :
-------------------------------------------------------------------------------------------------
 ind ec tp sbtp e1 e2       eta      rs/rl         rc   angl   angr la zeta    a    ln
-------------------------------------------------------------------------------------------------
   1  O  2  ct1  H    6.944E-03  0.000E+00  1.200E+01                       0.00   192
   2  O  2  ct1  C    6.944E-03  0.000E+00  1.200E+01                       0.00   198
   3  O  2  ct1  O    6.944E-03  0.000E+00  1.200E+01                       0.00   204
   4  O  2  ct1  H    1.389E-02  0.000E+00  1.200E+01                       0.00   193
   5  O  2  ct1  C    1.389E-02  0.000E+00  1.200E+01                       0.00   199
   6  O  2  ct1  O    1.389E-02  0.000E+00  1.200E+01                       0.00   205
   7  O  2  ct1  H    2.778E-02  0.000E+00  1.200E+01                       0.00   194
   8  O  2  ct1  C    2.778E-02  0.000E+00  1.200E+01                       0.00   200
   9  O  2  ct1  O    2.778E-02  0.000E+00  1.200E+01                       0.00   206
  10  O  2  ct1  H    5.556E-02  0.000E+00  1.200E+01                       0.00   195
  11  O  2  ct1  C    5.556E-02  0.000E+00  1.200E+01                       0.00   201
  12  O  2  ct1  O    5.556E-02  0.000E+00  1.200E+01                       0.00   207
  13  O  2  ct1  H    9.168E-02  8.697E+00  1.200E+01                       0.00   689
  14  O  2  ct1  C    9.168E-02  8.697E+00  1.200E+01                       0.00   695
  15  O  2  ct1  O    9.168E-02  8.697E+00  1.200E+01                       0.00   701
  16  O  2  ct1  H    1.111E-01  0.000E+00  1.200E+01                       0.00   196
  17  O  2  ct1  C    1.111E-01  0.000E+00  1.200E+01                       0.00   202
  18  O  2  ct1  O    1.111E-01  0.000E+00  1.200E+01                       0.00   208
  19  O  2  ct1  H    1.745E-01  6.304E+00  1.200E+01                       0.00   688
  20  O  2  ct1  C    1.745E-01  6.304E+00  1.200E+01                       0.00   694
  21  O  2  ct1  O    1.745E-01  6.304E+00  1.200E+01                       0.00   700
  22  O  2  ct1  H    3.322E-01  4.569E+00  1.200E+01                       0.00   687
  23  O  2  ct1  C    3.322E-01  4.569E+00  1.200E+01                       0.00   693
  24  O  2  ct1  O    3.322E-01  4.569E+00  1.200E+01                       0.00   699
  25  O  2  ct1  H    6.325E-01  3.311E+00  1.200E+01                       0.00   686
  26  O  2  ct1  C    6.325E-01  3.311E+00  1.200E+01                       0.00   692
  27  O  2  ct1  O    6.325E-01  3.311E+00  1.200E+01                       0.00   698
  28  O  2  ct1  H    1.204E+00  2.400E+00  1.200E+01                       0.00   685
  29  O  2  ct1  C    1.204E+00  2.400E+00  1.200E+01                       0.00   691
  30  O  2  ct1  O    1.204E+00  2.400E+00  1.200E+01                       0.00   697
  31  O  3  ct1  H  H 6.944E-03  0.000E+00  1.200E+01               -1  1.0 0.00   357
  32  O  3  ct1  H  C 6.944E-03  0.000E+00  1.200E+01               -1  1.0 0.00   368
  33  O  3  ct1  H  O 6.944E-03  0.000E+00  1.200E+01               -1  1.0 0.00   379
  34  O  3  ct1  C  C 6.944E-03  0.000E+00  1.200E+01               -1  1.0 0.00   390
  35  O  3  ct1  C  O 6.944E-03  0.000E+00  1.200E+01               -1  1.0 0.00   401
  36  O  3  ct1  O  O 6.944E-03  0.000E+00  1.200E+01               -1  1.0 0.00   412
  37  O  3  ct1  H  H 6.944E-03  0.000E+00  1.200E+01                1  1.0 0.00   358
  38  O  3  ct1  H  C 6.944E-03  0.000E+00  1.200E+01                1  1.0 0.00   369
  39  O  3  ct1  H  O 6.944E-03  0.000E+00  1.200E+01                1  1.0 0.00   380
  40  O  3  ct1  C  C 6.944E-03  0.000E+00  1.200E+01                1  1.0 0.00   391
  41  O  3  ct1  C  O 6.944E-03  0.000E+00  1.200E+01                1  1.0 0.00   402
  42  O  3  ct1  O  O 6.944E-03  0.000E+00  1.200E+01                1  1.0 0.00   413
  43  O  3  ct1  H  H 1.389E-02  0.000E+00  1.200E+01               -1  1.0 0.00   359
  44  O  3  ct1  H  C 1.389E-02  0.000E+00  1.200E+01               -1  1.0 0.00   370
  45  O  3  ct1  H  O 1.389E-02  0.000E+00  1.200E+01               -1  1.0 0.00   381
  46  O  3  ct1  C  C 1.389E-02  0.000E+00  1.200E+01               -1  1.0 0.00   392
  47  O  3  ct1  C  O 1.389E-02  0.000E+00  1.200E+01               -1  1.0 0.00   403
  48  O  3  ct1  O  O 1.389E-02  0.000E+00  1.200E+01               -1  1.0 0.00   414
  49  O  3  ct1  H  H 1.389E-02  0.000E+00  1.200E+01                1  1.0 0.00   360
  50  O  3  ct1  H  C 1.389E-02  0.000E+00  1.200E+01                1  1.0 0.00   371
  51  O  3  ct1  H  O 1.389E-02  0.000E+00  1.200E+01                1  1.0 0.00   382
  52  O  3  ct1  C  C 1.389E-02  0.000E+00  1.200E+01                1  1.0 0.00   393
  53  O  3  ct1  C  O 1.389E-02  0.000E+00  1.200E+01                1  1.0 0.00   404
  54  O  3  ct1  O  O 1.389E-02  0.000E+00  1.200E+01                1  1.0 0.00   415
  55  O  3  ct1  H  H 2.778E-02  0.000E+00  1.200E+01               -1  1.0 0.00   361
  56  O  3  ct1  H  C 2.778E-02  0.000E+00  1.200E+01               -1  1.0 0.00   372
  57  O  3  ct1  H  O 2.778E-02  0.000E+00  1.200E+01               -1  1.0 0.00   383
  58  O  3  ct1  C  C 2.778E-02  0.000E+00  1.200E+01               -1  1.0 0.00   394
  59  O  3  ct1  C  O 2.778E-02  0.000E+00  1.200E+01               -1  1.0 0.00   405
  60  O  3  ct1  O  O 2.778E-02  0.000E+00  1.200E+01               -1  1.0 0.00   416
  61  O  3  ct1  H  H 2.778E-02  0.000E+00  1.200E+01                1  1.0 0.00   362
  62  O  3  ct1  H  C 2.778E-02  0.000E+00  1.200E+01                1  1.0 0.00   373
  63  O  3  ct1  H  O 2.778E-02  0.000E+00  1.200E+01                1  1.0 0.00   384
  64  O  3  ct1  C  C 2.778E-02  0.000E+00  1.200E+01                1  1.0 0.00   395
  65  O  3  ct1  C  O 2.778E-02  0.000E+00  1.200E+01                1  1.0 0.00   406
  66  O  3  ct1  O  O 2.778E-02  0.000E+00  1.200E+01                1  1.0 0.00   417
  67  O  3  ct1  H  H 5.556E-02  0.000E+00  1.200E+01               -1  1.0 0.00   363
  68  O  3  ct1  H  C 5.556E-02  0.000E+00  1.200E+01               -1  1.0 0.00   374
  69  O  3  ct1  H  O 5.556E-02  0.000E+00  1.200E+01               -1  1.0 0.00   385
  70  O  3  ct1  C  C 5.556E-02  0.000E+00  1.200E+01               -1  1.0 0.00   396
  71  O  3  ct1  C  O 5.556E-02  0.000E+00  1.200E+01               -1  1.0 0.00   407
  72  O  3  ct1  O  O 5.556E-02  0.000E+00  1.200E+01               -1  1.0 0.00   418
  73  O  3  ct1  H  H 5.556E-02  0.000E+00  1.200E+01                1  1.0 0.00   364
  74  O  3  ct1  H  C 5.556E-02  0.000E+00  1.200E+01                1  1.0 0.00   375
  75  O  3  ct1  H  O 5.556E-02  0.000E+00  1.200E+01                1  1.0 0.00   386
  76  O  3  ct1  C  C 5.556E-02  0.000E+00  1.200E+01                1  1.0 0.00   397
  77  O  3  ct1  C  O 5.556E-02  0.000E+00  1.200E+01                1  1.0 0.00   408
  78  O  3  ct1  O  O 5.556E-02  0.000E+00  1.200E+01                1  1.0 0.00   419
  79  O  3  ct1  H  H 9.168E-02  8.697E+00  1.200E+01               -1  1.0 0.00   858
  80  O  3  ct1  H  C 9.168E-02  8.697E+00  1.200E+01               -1  1.0 0.00   869
  81  O  3  ct1  H  O 9.168E-02  8.697E+00  1.200E+01               -1  1.0 0.00   880
  82  O  3  ct1  C  C 9.168E-02  8.697E+00  1.200E+01               -1  1.0 0.00   891
  83  O  3  ct1  C  O 9.168E-02  8.697E+00  1.200E+01               -1  1.0 0.00   902
  84  O  3  ct1  O  O 9.168E-02  8.697E+00  1.200E+01               -1  1.0 0.00   913
  85  O  3  ct1  H  H 9.168E-02  8.697E+00  1.200E+01                1  1.0 0.00   859
  86  O  3  ct1  H  C 9.168E-02  8.697E+00  1.200E+01                1  1.0 0.00   870
  87  O  3  ct1  H  O 9.168E-02  8.697E+00  1.200E+01                1  1.0 0.00   881
  88  O  3  ct1  C  C 9.168E-02  8.697E+00  1.200E+01                1  1.0 0.00   892
  89  O  3  ct1  C  O 9.168E-02  8.697E+00  1.200E+01                1  1.0 0.00   903
  90  O  3  ct1  O  O 9.168E-02  8.697E+00  1.200E+01                1  1.0 0.00   914
  91  O  3  ct1  H  H 1.111E-01  0.000E+00  1.200E+01               -1  1.0 0.00   365
  92  O  3  ct1  H  C 1.111E-01  0.000E+00  1.200E+01               -1  1.0 0.00   376
  93  O  3  ct1  H  O 1.111E-01  0.000E+00  1.200E+01               -1  1.0 0.00   387
  94  O  3  ct1  C  C 1.111E-01  0.000E+00  1.200E+01               -1  1.0 0.00   398
  95  O  3  ct1  C  O 1.111E-01  0.000E+00  1.200E+01               -1  1.0 0.00   409
  96  O  3  ct1  H  H 1.111E-01  0.000E+00  1.200E+01                1  1.0 0.00   366
  97  O  3  ct1  H  C 1.111E-01  0.000E+00  1.200E+01                1  1.0 0.00   377
  98  O  3  ct1  H  O 1.111E-01  0.000E+00  1.200E+01                1  1.0 0.00   388
  99  O  3  ct1  C  C 1.111E-01  0.000E+00  1.200E+01                1  1.0 0.00   399
 100  O  3  ct1  C  O 1.111E-01  0.000E+00  1.200E+01                1  1.0 0.00   410
 101  O  3  ct1  O  O 1.111E-01  0.000E+00  1.200E+01                1  1.0 0.00   421
 102  O  3  ct1  H  H 1.745E-01  6.304E+00  1.200E+01               -1  1.0 0.00   856
 103  O  3  ct1  H  C 1.745E-01  6.304E+00  1.200E+01               -1  1.0 0.00   867
 104  O  3  ct1  H  O 1.745E-01  6.304E+00  1.200E+01               -1  1.0 0.00   878
 105  O  3  ct1  C  C 1.745E-01  6.304E+00  1.200E+01               -1  1.0 0.00   889
 106  O  3  ct1  C  O 1.745E-01  6.304E+00  1.200E+01               -1  1.0 0.00   900
 107  O  3  ct1  O  O 1.745E-01  6.304E+00  1.200E+01               -1  1.0 0.00   911
 108  O  3  ct1  H  H 1.745E-01  6.304E+00  1.200E+01                1  1.0 0.00   857
 109  O  3  ct1  H  C 1.745E-01  6.304E+00  1.200E+01                1  1.0 0.00   868
 110  O  3  ct1  H  O 1.745E-01  6.304E+00  1.200E+01                1  1.0 0.00   879
 111  O  3  ct1  C  C 1.745E-01  6.304E+00  1.200E+01                1  1.0 0.00   890
 112  O  3  ct1  C  O 1.745E-01  6.304E+00  1.200E+01                1  1.0 0.00   901
 113  O  3  ct1  O  O 1.745E-01  6.304E+00  1.200E+01                1  1.0 0.00   912
 114  O  3  ct1  H  H 3.322E-01  4.569E+00  1.200E+01               -1  1.0 0.00   854
 115  O  3  ct1  H  C 3.322E-01  4.569E+00  1.200E+01               -1  1.0 0.00   865
 116  O  3  ct1  H  O 3.322E-01  4.569E+00  1.200E+01               -1  1.0 0.00   876
 117  O  3  ct1  C  C 3.322E-01  4.569E+00  1.200E+01               -1  1.0 0.00   887
 118  O  3  ct1  C  O 3.322E-01  4.569E+00  1.200E+01               -1  1.0 0.00   898
 119  O  3  ct1  O  O 3.322E-01  4.569E+00  1.200E+01               -1  1.0 0.00   909
 120  O  3  ct1  H  H 3.322E-01  4.569E+00  1.200E+01                1  1.0 0.00   855
 121  O  3  ct1  H  C 3.322E-01  4.569E+00  1.200E+01                1  1.0 0.00   866
 122  O  3  ct1  H  O 3.322E-01  4.569E+00  1.200E+01                1  1.0 0.00   877
 123  O  3  ct1  C  C 3.322E-01  4.569E+00  1.200E+01                1  1.0 0.00   888
 124  O  3  ct1  C  O 3.322E-01  4.569E+00  1.200E+01                1  1.0 0.00   899
 125  O  3  ct1  O  O 3.322E-01  4.569E+00  1.200E+01                1  1.0 0.00   910
 126  O  3  ct1  H  H 6.325E-01  3.311E+00  1.200E+01               -1  1.0 0.00   852
 127  O  3  ct1  H  C 6.325E-01  3.311E+00  1.200E+01               -1  1.0 0.00   863
 128  O  3  ct1  H  O 6.325E-01  3.311E+00  1.200E+01               -1  1.0 0.00   874
 129  O  3  ct1  C  C 6.325E-01  3.311E+00  1.200E+01               -1  1.0 0.00   885
 130  O  3  ct1  C  O 6.325E-01  3.311E+00  1.200E+01               -1  1.0 0.00   896
 131  O  3  ct1  O  O 6.325E-01  3.311E+00  1.200E+01               -1  1.0 0.00   907
 132  O  3  ct1  H  H 6.325E-01  3.311E+00  1.200E+01                1  1.0 0.00   853
 133  O  3  ct1  H  C 6.325E-01  3.311E+00  1.200E+01                1  1.0 0.00   864
 134  O  3  ct1  H  O 6.325E-01  3.311E+00  1.200E+01                1  1.0 0.00   875
 135  O  3  ct1  C  C 6.325E-01  3.311E+00  1.200E+01                1  1.0 0.00   886
 136  O  3  ct1  C  O 6.325E-01  3.311E+00  1.200E+01                1  1.0 0.00   897
 137  O  3  ct1  O  O 6.325E-01  3.311E+00  1.200E+01                1  1.0 0.00   908
 138  O  3  ct1  H  H 1.204E+00  2.400E+00  1.200E+01               -1  1.0 0.00   850
 139  O  3  ct1  H  C 1.204E+00  2.400E+00  1.200E+01               -1  1.0 0.00   861
 140  O  3  ct1  C  C 1.204E+00  2.400E+00  1.200E+01               -1  1.0 0.00   883
 141  O  3  ct1  H  H 1.204E+00  2.400E+00  1.200E+01                1  1.0 0.00   851
 142  O  3  ct1  H  C 1.204E+00  2.400E+00  1.200E+01                1  1.0 0.00   862
 143  O  3  ct1  H  O 1.204E+00  2.400E+00  1.200E+01                1  1.0 0.00   873
 144  O  3  ct1  C  C 1.204E+00  2.400E+00  1.200E+01                1  1.0 0.00   884
 145  O  9  ct1  H  H 6.944E-03  0.000E+00  1.200E+01               -1  1.0 0.00   570
 146  O  9  ct1  H  C 6.944E-03  0.000E+00  1.200E+01               -1  1.0 0.00   581
 147  O  9  ct1  H  O 6.944E-03  0.000E+00  1.200E+01               -1  1.0 0.00   592
 148  O  9  ct1  C  C 6.944E-03  0.000E+00  1.200E+01               -1  1.0 0.00   603
 149  O  9  ct1  C  O 6.944E-03  0.000E+00  1.200E+01               -1  1.0 0.00   614
 150  O  9  ct1  O  O 6.944E-03  0.000E+00  1.200E+01               -1  1.0 0.00   625
 151  O  9  ct1  H  H 6.944E-03  0.000E+00  1.200E+01                1  1.0 0.00   571
 152  O  9  ct1  H  C 6.944E-03  0.000E+00  1.200E+01                1  1.0 0.00   582
 153  O  9  ct1  H  O 6.944E-03  0.000E+00  1.200E+01                1  1.0 0.00   593
 154  O  9  ct1  C  C 6.944E-03  0.000E+00  1.200E+01                1  1.0 0.00   604
 155  O  9  ct1  C  O 6.944E-03  0.000E+00  1.200E+01                1  1.0 0.00   615
 156  O  9  ct1  O  O 6.944E-03  0.000E+00  1.200E+01                1  1.0 0.00   626
 157  O  9  ct1  H  H 1.389E-02  0.000E+00  1.200E+01               -1  1.0 0.00   572
 158  O  9  ct1  H  C 1.389E-02  0.000E+00  1.200E+01               -1  1.0 0.00   583
 159  O  9  ct1  H  O 1.389E-02  0.000E+00  1.200E+01               -1  1.0 0.00   594
 160  O  9  ct1  C  C 1.389E-02  0.000E+00  1.200E+01               -1  1.0 0.00   605
 161  O  9  ct1  C  O 1.389E-02  0.000E+00  1.200E+01               -1  1.0 0.00   616
 162  O  9  ct1  O  O 1.389E-02  0.000E+00  1.200E+01               -1  1.0 0.00   627
 163  O  9  ct1  H  H 1.389E-02  0.000E+00  1.200E+01                1  1.0 0.00   573
 164  O  9  ct1  H  C 1.389E-02  0.000E+00  1.200E+01                1  1.0 0.00   584
 165  O  9  ct1  H  O 1.389E-02  0.000E+00  1.200E+01                1  1.0 0.00   595
 166  O  9  ct1  C  C 1.389E-02  0.000E+00  1.200E+01                1  1.0 0.00   606
 167  O  9  ct1  C  O 1.389E-02  0.000E+00  1.200E+01                1  1.0 0.00   617
 168  O  9  ct1  O  O 1.389E-02  0.000E+00  1.200E+01                1  1.0 0.00   628
 169  O  9  ct1  H  H 2.778E-02  0.000E+00  1.200E+01               -1  1.0 0.00   574
 170  O  9  ct1  H  C 2.778E-02  0.000E+00  1.200E+01               -1  1.0 0.00   585
 171  O  9  ct1  H  O 2.778E-02  0.000E+00  1.200E+01               -1  1.0 0.00   596
 172  O  9  ct1  C  C 2.778E-02  0.000E+00  1.200E+01               -1  1.0 0.00   607
 173  O  9  ct1  C  O 2.778E-02  0.000E+00  1.200E+01               -1  1.0 0.00   618
 174  O  9  ct1  O  O 2.778E-02  0.000E+00  1.200E+01               -1  1.0 0.00   629
 175  O  9  ct1  H  H 2.778E-02  0.000E+00  1.200E+01                1  1.0 0.00   575
 176  O  9  ct1  H  C 2.778E-02  0.000E+00  1.200E+01                1  1.0 0.00   586
 177  O  9  ct1  H  O 2.778E-02  0.000E+00  1.200E+01                1  1.0 0.00   597
 178  O  9  ct1  C  C 2.778E-02  0.000E+00  1.200E+01                1  1.0 0.00   608
 179  O  9  ct1  C  O 2.778E-02  0.000E+00  1.200E+01                1  1.0 0.00   619
 180  O  9  ct1  O  O 2.778E-02  0.000E+00  1.200E+01                1  1.0 0.00   630
 181  O  9  ct1  H  H 5.556E-02  0.000E+00  1.200E+01               -1  1.0 0.00   576
 182  O  9  ct1  H  C 5.556E-02  0.000E+00  1.200E+01               -1  1.0 0.00   587
 183  O  9  ct1  H  O 5.556E-02  0.000E+00  1.200E+01               -1  1.0 0.00   598
 184  O  9  ct1  C  C 5.556E-02  0.000E+00  1.200E+01               -1  1.0 0.00   609
 185  O  9  ct1  C  O 5.556E-02  0.000E+00  1.200E+01               -1  1.0 0.00   620
 186  O  9  ct1  O  O 5.556E-02  0.000E+00  1.200E+01               -1  1.0 0.00   631
 187  O  9  ct1  H  H 5.556E-02  0.000E+00  1.200E+01                1  1.0 0.00   577
 188  O  9  ct1  H  C 5.556E-02  0.000E+00  1.200E+01                1  1.0 0.00   588
 189  O  9  ct1  H  O 5.556E-02  0.000E+00  1.200E+01                1  1.0 0.00   599
 190  O  9  ct1  C  C 5.556E-02  0.000E+00  1.200E+01                1  1.0 0.00   610
 191  O  9  ct1  C  O 5.556E-02  0.000E+00  1.200E+01                1  1.0 0.00   621
 192  O  9  ct1  O  O 5.556E-02  0.000E+00  1.200E+01                1  1.0 0.00   632
 193  O  9  ct1  H  H 9.168E-02  8.697E+00  1.200E+01               -1  1.0 0.00  1071
 194  O  9  ct1  H  C 9.168E-02  8.697E+00  1.200E+01               -1  1.0 0.00  1082
 195  O  9  ct1  H  O 9.168E-02  8.697E+00  1.200E+01               -1  1.0 0.00  1093
 196  O  9  ct1  C  C 9.168E-02  8.697E+00  1.200E+01               -1  1.0 0.00  1104
 197  O  9  ct1  C  O 9.168E-02  8.697E+00  1.200E+01               -1  1.0 0.00  1115
 198  O  9  ct1  O  O 9.168E-02  8.697E+00  1.200E+01               -1  1.0 0.00  1126
 199  O  9  ct1  H  H 9.168E-02  8.697E+00  1.200E+01                1  1.0 0.00  1072
 200  O  9  ct1  H  C 9.168E-02  8.697E+00  1.200E+01                1  1.0 0.00  1083
 201  O  9  ct1  H  O 9.168E-02  8.697E+00  1.200E+01                1  1.0 0.00  1094
 202  O  9  ct1  C  C 9.168E-02  8.697E+00  1.200E+01                1  1.0 0.00  1105
 203  O  9  ct1  C  O 9.168E-02  8.697E+00  1.200E+01                1  1.0 0.00  1116
 204  O  9  ct1  O  O 9.168E-02  8.697E+00  1.200E+01                1  1.0 0.00  1127
 205  O  9  ct1  H  H 1.111E-01  0.000E+00  1.200E+01               -1  1.0 0.00   578
 206  O  9  ct1  H  C 1.111E-01  0.000E+00  1.200E+01               -1  1.0 0.00   589
 207  O  9  ct1  H  O 1.111E-01  0.000E+00  1.200E+01               -1  1.0 0.00   600
 208  O  9  ct1  C  C 1.111E-01  0.000E+00  1.200E+01               -1  1.0 0.00   611
 209  O  9  ct1  C  O 1.111E-01  0.000E+00  1.200E+01               -1  1.0 0.00   622
 210  O  9  ct1  O  O 1.111E-01  0.000E+00  1.200E+01               -1  1.0 0.00   633
 211  O  9  ct1  H  H 1.111E-01  0.000E+00  1.200E+01                1  1.0 0.00   579
 212  O  9  ct1  H  C 1.111E-01  0.000E+00  1.200E+01                1  1.0 0.00   590
 213  O  9  ct1  H  O 1.111E-01  0.000E+00  1.200E+01                1  1.0 0.00   601
 214  O  9  ct1  C  C 1.111E-01  0.000E+00  1.200E+01                1  1.0 0.00   612
 215  O  9  ct1  C  O 1.111E-01  0.000E+00  1.200E+01                1  1.0 0.00   623
 216  O  9  ct1  O  O 1.111E-01  0.000E+00  1.200E+01                1  1.0 0.00   634
 217  O  9  ct1  H  H 1.745E-01  6.304E+00  1.200E+01               -1  1.0 0.00  1069
 218  O  9  ct1  H  C 1.745E-01  6.304E+00  1.200E+01               -1  1.0 0.00  1080
 219  O  9  ct1  H  O 1.745E-01  6.304E+00  1.200E+01               -1  1.0 0.00  1091
 220  O  9  ct1  C  C 1.745E-01  6.304E+00  1.200E+01               -1  1.0 0.00  1102
 221  O  9  ct1  C  O 1.745E-01  6.304E+00  1.200E+01               -1  1.0 0.00  1113
 222  O  9  ct1  O  O 1.745E-01  6.304E+00  1.200E+01               -1  1.0 0.00  1124
 223  O  9  ct1  H  H 1.745E-01  6.304E+00  1.200E+01                1  1.0 0.00  1070
 224  O  9  ct1  H  C 1.745E-01  6.304E+00  1.200E+01                1  1.0 0.00  1081
 225  O  9  ct1  H  O 1.745E-01  6.304E+00  1.200E+01                1  1.0 0.00  1092
 226  O  9  ct1  C  C 1.745E-01  6.304E+00  1.200E+01                1  1.0 0.00  1103
 227  O  9  ct1  C  O 1.745E-01  6.304E+00  1.200E+01                1  1.0 0.00  1114
 228  O  9  ct1  O  O 1.745E-01  6.304E+00  1.200E+01                1  1.0 0.00  1125
 229  O  9  ct1  H  H 3.322E-01  4.569E+00  1.200E+01               -1  1.0 0.00  1067
 230  O  9  ct1  H  C 3.322E-01  4.569E+00  1.200E+01               -1  1.0 0.00  1078
 231  O  9  ct1  H  O 3.322E-01  4.569E+00  1.200E+01               -1  1.0 0.00  1089
 232  O  9  ct1  C  C 3.322E-01  4.569E+00  1.200E+01               -1  1.0 0.00  1100
 233  O  9  ct1  C  O 3.322E-01  4.569E+00  1.200E+01               -1  1.0 0.00  1111
 234  O  9  ct1  O  O 3.322E-01  4.569E+00  1.200E+01               -1  1.0 0.00  1122
 235  O  9  ct1  H  H 3.322E-01  4.569E+00  1.200E+01                1  1.0 0.00  1068
 236  O  9  ct1  H  C 3.322E-01  4.569E+00  1.200E+01                1  1.0 0.00  1079
 237  O  9  ct1  H  O 3.322E-01  4.569E+00  1.200E+01                1  1.0 0.00  1090
 238  O  9  ct1  C  C 3.322E-01  4.569E+00  1.200E+01                1  1.0 0.00  1101
 239  O  9  ct1  C  O 3.322E-01  4.569E+00  1.200E+01                1  1.0 0.00  1112
 240  O  9  ct1  O  O 3.322E-01  4.569E+00  1.200E+01                1  1.0 0.00  1123
 241  O  9  ct1  H  H 6.325E-01  3.311E+00  1.200E+01               -1  1.0 0.00  1065
 242  O  9  ct1  H  C 6.325E-01  3.311E+00  1.200E+01               -1  1.0 0.00  1076
 243  O  9  ct1  H  O 6.325E-01  3.311E+00  1.200E+01               -1  1.0 0.00  1087
 244  O  9  ct1  C  C 6.325E-01  3.311E+00  1.200E+01               -1  1.0 0.00  1098
 245  O  9  ct1  C  O 6.325E-01  3.311E+00  1.200E+01               -1  1.0 0.00  1109
 246  O  9  ct1  O  O 6.325E-01  3.311E+00  1.200E+01               -1  1.0 0.00  1120
 247  O  9  ct1  H  H 6.325E-01  3.311E+00  1.200E+01                1  1.0 0.00  1066
 248  O  9  ct1  H  C 6.325E-01  3.311E+00  1.200E+01                1  1.0 0.00  1077
 249  O  9  ct1  H  O 6.325E-01  3.311E+00  1.200E+01                1  1.0 0.00  1088
 250  O  9  ct1  C  C 6.325E-01  3.311E+00  1.200E+01                1  1.0 0.00  1099
 251  O  9  ct1  C  O 6.325E-01  3.311E+00  1.200E+01                1  1.0 0.00  1110
 252  O  9  ct1  O  O 6.325E-01  3.311E+00  1.200E+01                1  1.0 0.00  1121
 253  O  9  ct1  H  H 1.204E+00  2.400E+00  1.200E+01               -1  1.0 0.00  1063
 254  O  9  ct1  H  C 1.204E+00  2.400E+00  1.200E+01               -1  1.0 0.00  1074
 255  O  9  ct1  H  O 1.204E+00  2.400E+00  1.200E+01               -1  1.0 0.00  1085
 256  O  9  ct1  C  C 1.204E+00  2.400E+00  1.200E+01               -1  1.0 0.00  1096
 257  O  9  ct1  C  O 1.204E+00  2.400E+00  1.200E+01               -1  1.0 0.00  1107
 258  O  9  ct1  H  H 1.204E+00  2.400E+00  1.200E+01                1  1.0 0.00  1064
 259  O  9  ct1  H  C 1.204E+00  2.400E+00  1.200E+01                1  1.0 0.00  1075
 260  O  9  ct1  H  O 1.204E+00  2.400E+00  1.200E+01                1  1.0 0.00  1086
 261  O  9  ct1  C  C 1.204E+00  2.400E+00  1.200E+01                1  1.0 0.00  1097
 262  O  9  ct1  C  O 1.204E+00  2.400E+00  1.200E+01                1  1.0 0.00  1108
-------------------------------------------------------------------------------------------------
Minimum cutoff radius for element  H: 12.000000
Minimum cutoff radius for element  C: 12.000000
Minimum cutoff radius for element  O: 12.000000
Maximum cutoff radius (global)      : 12.000000
*******************************************************************************

*** SETUP: SYMMETRY FUNCTION MEMORY *******************************************

Symmetry function derivatives memory table for element  H :
-------------------------------------------------------------------------------
Relevant symmetry functions for neighbors with element:
-  H:  130 of  269 ( 48.3 %)
-  C:  130 of  269 ( 48.3 %)
-  O:  129 of  269 ( 48.0 %)
-------------------------------------------------------------------------------
Symmetry function derivatives memory table for element  C :
-------------------------------------------------------------------------------
Relevant symmetry functions for neighbors with element:
-  H:  130 of  266 ( 48.9 %)
-  C:  130 of  266 ( 48.9 %)
-  O:  126 of  266 ( 47.4 %)
-------------------------------------------------------------------------------
Symmetry function derivatives memory table for element  O :
-------------------------------------------------------------------------------
Relevant symmetry functions for neighbors with element:
-  H:  129 of  262 ( 49.2 %)
-  C:  128 of  262 ( 48.9 %)
-  O:  122 of  262 ( 46.6 %)
-------------------------------------------------------------------------------
*******************************************************************************

*** SETUP: SYMMETRY FUNCTION CACHE ********************************************

Element  H: in total 6 caches, used 129.67 times on average.
Element  C: in total 6 caches, used 128.67 times on average.
Element  O: in total 6 caches, used 126.33 times on average.
*******************************************************************************

[...]
### NNP EXTRAPOLATION WARNING ### STRUCTURE:     19 ATOM:       193 ELEMENT:  O SYMFUNC:   56 TYPE:  3 VALUE:  5.901E-01 MIN:  7.622E-01 MAX:  2.212E+00
### NNP EXTRAPOLATION WARNING ### STRUCTURE:     19 ATOM:       193 ELEMENT:  O SYMFUNC:   68 TYPE:  3 VALUE:  1.834E-01 MIN:  2.513E-01 MAX:  6.474E-01
### NNP EXTRAPOLATION WARNING ### STRUCTURE:     20 ATOM:        81 ELEMENT:  O SYMFUNC:   80 TYPE:  3 VALUE:  4.390E-01 MIN:  4.439E-01 MAX:  2.445E+00
### NNP EXTRAPOLATION WARNING ### STRUCTURE:     20 ATOM:        81 ELEMENT:  O SYMFUNC:   82 TYPE:  3 VALUE:  1.007E-01 MIN:  1.196E-01 MAX:  1.418E+00
### NNP EXTRAPOLATION WARNING ### STRUCTURE:     22 ATOM:       353 ELEMENT:  O SYMFUNC:   82 TYPE:  3 VALUE:  9.373E-02 MIN:  1.196E-01 MAX:  1.418E+00
### NNP EXTRAPOLATION WARNING ### STRUCTURE:     22 ATOM:       353 ELEMENT:  O SYMFUNC:   88 TYPE:  3 VALUE:  3.342E-01 MIN:  3.644E-01 MAX:  3.465E+00
### NNP EXTRAPOLATION WARNING ### STRUCTURE:      5 ATOM:       321 ELEMENT:  O SYMFUNC:   97 TYPE:  3 VALUE:  1.478E-01 MIN:  1.857E-02 MAX:  1.328E-01
### NNP EXTRAPOLATION WARNING ### STRUCTURE:     19 ATOM:       193 ELEMENT:  O SYMFUNC:   97 TYPE:  3 VALUE:  1.800E-01 MIN:  1.857E-02 MAX:  1.328E-01
### NNP EXTRAPOLATION WARNING ### STRUCTURE:     20 ATOM:        81 ELEMENT:  O SYMFUNC:  105 TYPE:  3 VALUE:  1.207E-01 MIN:  1.279E-01 MAX:  2.139E+00
### NNP EXTRAPOLATION WARNING ### STRUCTURE:      5 ATOM:       321 ELEMENT:  O SYMFUNC:  127 TYPE:  3 VALUE:  9.282E-02 MIN:  1.414E-01 MAX:  6.201E-01
### NNP EXTRAPOLATION WARNING ### STRUCTURE:     13 ATOM:         1 ELEMENT:  O SYMFUNC:  127 TYPE:  3 VALUE:  1.392E-01 MIN:  1.414E-01 MAX:  6.201E-01
### NNP EXTRAPOLATION WARNING ### STRUCTURE:     19 ATOM:       193 ELEMENT:  O SYMFUNC:  127 TYPE:  3 VALUE:  1.389E-01 MIN:  1.414E-01 MAX:  6.201E-01
### NNP EXTRAPOLATION WARNING ### STRUCTURE:      5 ATOM:       321 ELEMENT:  O SYMFUNC:  142 TYPE:  3 VALUE:  3.357E-01 MIN:  3.502E-03 MAX:  1.778E-01
### NNP EXTRAPOLATION WARNING ### STRUCTURE:     13 ATOM:         1 ELEMENT:  O SYMFUNC:  142 TYPE:  3 VALUE:  2.314E-01 MIN:  3.502E-03 MAX:  1.778E-01
### NNP EXTRAPOLATION WARNING ### STRUCTURE:     19 ATOM:       193 ELEMENT:  O SYMFUNC:  142 TYPE:  3 VALUE:  5.981E-01 MIN:  3.502E-03 MAX:  1.778E-01
### NNP EXTRAPOLATION WARNING ### STRUCTURE:     22 ATOM:       353 ELEMENT:  O SYMFUNC:  142 TYPE:  3 VALUE:  2.342E-01 MIN:  3.502E-03 MAX:  1.778E-01
### NNP EXTRAPOLATION WARNING ### STRUCTURE:     19 ATOM:       193 ELEMENT:  O SYMFUNC:  182 TYPE:  9 VALUE:  1.116E+00 MIN:  1.387E+00 MAX:  5.324E+00
### NNP EXTRAPOLATION WARNING ### STRUCTURE:     13 ATOM:         1 ELEMENT:  O SYMFUNC:  206 TYPE:  9 VALUE:  3.596E-01 MIN:  4.034E-01 MAX:  1.227E+00
### NNP EXTRAPOLATION WARNING ### STRUCTURE:     19 ATOM:       193 ELEMENT:  O SYMFUNC:  206 TYPE:  9 VALUE:  1.684E-01 MIN:  4.034E-01 MAX:  1.227E+00
### NNP EXTRAPOLATION WARNING ### STRUCTURE:     20 ATOM:        81 ELEMENT:  O SYMFUNC:  218 TYPE:  9 VALUE:  9.243E+00 MIN:  9.583E+00 MAX:  5.753E+01
### NNP EXTRAPOLATION WARNING ### STRUCTURE:     20 ATOM:        81 ELEMENT:  O SYMFUNC:  224 TYPE:  9 VALUE:  8.445E+00 MIN:  9.029E+00 MAX:  5.680E+01
### NNP EXTRAPOLATION WARNING ### STRUCTURE:     19 ATOM:       193 ELEMENT:  O SYMFUNC:  242 TYPE:  9 VALUE:  3.546E-01 MIN:  3.789E-01 MAX:  4.040E+00
### NNP EXTRAPOLATION WARNING ### STRUCTURE:      5 ATOM:       321 ELEMENT:  O SYMFUNC:  254 TYPE:  9 VALUE:  2.677E-01 MIN:  4.929E-01 MAX:  2.020E+00
### NNP EXTRAPOLATION WARNING ### STRUCTURE:     13 ATOM:         1 ELEMENT:  O SYMFUNC:  254 TYPE:  9 VALUE:  3.260E-01 MIN:  4.929E-01 MAX:  2.020E+00
### NNP EXTRAPOLATION WARNING ### STRUCTURE:     19 ATOM:       193 ELEMENT:  O SYMFUNC:  254 TYPE:  9 VALUE:  1.603E-01 MIN:  4.929E-01 MAX:  2.020E+00
### NNP EXTRAPOLATION WARNING ### STRUCTURE:     22 ATOM:       353 ELEMENT:  O SYMFUNC:  254 TYPE:  9 VALUE:  4.710E-01 MIN:  4.929E-01 MAX:  2.020E+00
thermo      161     0.0805  566.755    -53044.72328    -53007.28798    4.9493   42.9966  27616.28  18.54447  18.71212  18.68095  89.95943  90.06167  90.06299  0.88644 
### NNP EXTRAPOLATION WARNING ### STRUCTURE:      1 ATOM:       285 ELEMENT:  H SYMFUNC:   16 TYPE:  2 VALUE:  1.259E+00 MIN:  4.786E-02 MAX:  1.170E+00
### NNP EXTRAPOLATION WARNING ### STRUCTURE:      1 ATOM:       284 ELEMENT:  H SYMFUNC:   16 TYPE:  2 VALUE:  1.522E+00 MIN:  4.786E-02 MAX:  1.170E+00
### NNP EXTRAPOLATION WARNING ### STRUCTURE:      1 ATOM:       283 ELEMENT:  H SYMFUNC:   16 TYPE:  2 VALUE:  1.284E+00 MIN:  4.786E-02 MAX:  1.170E+00
### NNP EXTRAPOLATION WARNING ### STRUCTURE:      1 ATOM:       284 ELEMENT:  H SYMFUNC:   26 TYPE:  2 VALUE:  4.877E-01 MIN:  5.199E-01 MAX:  2.977E+00
### NNP EXTRAPOLATION WARNING ### STRUCTURE:      1 ATOM:       284 ELEMENT:  H SYMFUNC:   67 TYPE:  3 VALUE:  5.589E-01 MIN:  1.668E-04 MAX:  2.917E-01
### NNP EXTRAPOLATION WARNING ### STRUCTURE:      1 ATOM:       284 ELEMENT:  H SYMFUNC:   68 TYPE:  3 VALUE:  7.816E-01 MIN:  7.270E-03 MAX:  5.494E-01
### NNP EXTRAPOLATION WARNING ### STRUCTURE:     19 ATOM:       208 ELEMENT:  H SYMFUNC:   71 TYPE:  3 VALUE:  3.487E-01 MIN:  2.034E-10 MAX:  3.106E-01
### NNP EXTRAPOLATION WARNING ### STRUCTURE:      1 ATOM:       285 ELEMENT:  H SYMFUNC:   73 TYPE:  3 VALUE:  8.233E-01 MIN:  1.057E-03 MAX:  5.462E-01
### NNP EXTRAPOLATION WARNING ### STRUCTURE:      1 ATOM:       283 ELEMENT:  H SYMFUNC:   73 TYPE:  3 VALUE:  8.482E-01 MIN:  1.057E-03 MAX:  5.462E-01
### NNP EXTRAPOLATION WARNING ### STRUCTURE:      1 ATOM:       285 ELEMENT:  H SYMFUNC:   91 TYPE:  3 VALUE:  6.306E-02 MIN:  1.195E-07 MAX:  3.014E-02
### NNP EXTRAPOLATION WARNING ### STRUCTURE:      1 ATOM:       284 ELEMENT:  H SYMFUNC:   91 TYPE:  3 VALUE:  2.618E-01 MIN:  1.195E-07 MAX:  3.014E-02
### NNP EXTRAPOLATION WARNING ### STRUCTURE:      1 ATOM:       283 ELEMENT:  H SYMFUNC:   91 TYPE:  3 VALUE:  5.257E-02 MIN:  1.195E-07 MAX:  3.014E-02
### NNP EXTRAPOLATION WARNING ### STRUCTURE:      1 ATOM:       285 ELEMENT:  H SYMFUNC:   92 TYPE:  3 VALUE:  2.480E-01 MIN:  1.041E-04 MAX:  9.770E-02
### NNP EXTRAPOLATION WARNING ### STRUCTURE:      1 ATOM:       284 ELEMENT:  H SYMFUNC:   92 TYPE:  3 VALUE:  4.109E-01 MIN:  1.041E-04 MAX:  9.770E-02
### NNP EXTRAPOLATION WARNING ### STRUCTURE:      1 ATOM:       283 ELEMENT:  H SYMFUNC:   92 TYPE:  3 VALUE:  1.872E-01 MIN:  1.041E-04 MAX:  9.770E-02
### NNP EXTRAPOLATION WARNING ### STRUCTURE:      9 ATOM:       336 ELEMENT:  H SYMFUNC:   95 TYPE:  3 VALUE:  7.910E-02 MIN:  5.338E-16 MAX:  4.576E-02
### NNP EXTRAPOLATION WARNING ### STRUCTURE:     12 ATOM:        16 ELEMENT:  H SYMFUNC:   95 TYPE:  3 VALUE:  5.276E-02 MIN:  5.338E-16 MAX:  4.576E-02
### NNP EXTRAPOLATION WARNING ### STRUCTURE:     19 ATOM:       208 ELEMENT:  H SYMFUNC:   95 TYPE:  3 VALUE:  1.054E-01 MIN:  5.338E-16 MAX:  4.576E-02
### NNP EXTRAPOLATION WARNING ### STRUCTURE:      1 ATOM:       285 ELEMENT:  H SYMFUNC:   97 TYPE:  3 VALUE:  3.965E-01 MIN:  9.504E-07 MAX:  7.077E-02
### NNP EXTRAPOLATION WARNING ### STRUCTURE:      1 ATOM:       284 ELEMENT:  H SYMFUNC:   97 TYPE:  3 VALUE:  2.003E-01 MIN:  9.504E-07 MAX:  7.077E-02
### NNP EXTRAPOLATION WARNING ### STRUCTURE:      1 ATOM:       283 ELEMENT:  H SYMFUNC:   97 TYPE:  3 VALUE:  4.089E-01 MIN:  9.504E-07 MAX:  7.077E-02
### NNP EXTRAPOLATION WARNING ### STRUCTURE:      1 ATOM:       285 ELEMENT:  H SYMFUNC:   98 TYPE:  3 VALUE:  8.373E-01 MIN:  8.054E-04 MAX:  5.263E-01
### NNP EXTRAPOLATION WARNING ### STRUCTURE:      1 ATOM:       284 ELEMENT:  H SYMFUNC:   98 TYPE:  3 VALUE:  8.939E-01 MIN:  8.054E-04 MAX:  5.263E-01
### NNP EXTRAPOLATION WARNING ### STRUCTURE:      1 ATOM:       283 ELEMENT:  H SYMFUNC:   98 TYPE:  3 VALUE:  8.093E-01 MIN:  8.054E-04 MAX:  5.263E-01
### NNP EXTRAPOLATION WARNING ### STRUCTURE:     10 ATOM:       156 ELEMENT:  H SYMFUNC:  106 TYPE:  3 VALUE:  5.658E-02 MIN:  6.149E-02 MAX:  2.732E+00
### NNP EXTRAPOLATION WARNING ### STRUCTURE:      1 ATOM:       284 ELEMENT:  H SYMFUNC:  118 TYPE:  3 VALUE:  1.535E-02 MIN:  1.979E-02 MAX:  1.901E+00
### NNP EXTRAPOLATION WARNING ### STRUCTURE:      0 ATOM:       286 ELEMENT:  H SYMFUNC:  121 TYPE:  3 VALUE:  6.087E-03 MIN:  6.170E-03 MAX:  6.091E+00
### NNP EXTRAPOLATION WARNING ### STRUCTURE:      1 ATOM:       284 ELEMENT:  H SYMFUNC:  130 TYPE:  3 VALUE:  1.288E-04 MIN:  1.058E-03 MAX:  2.003E-01
### NNP EXTRAPOLATION WARNING ### STRUCTURE:      1 ATOM:       284 ELEMENT:  H SYMFUNC:  139 TYPE:  3 VALUE:  2.255E-01 MIN:  3.279E-27 MAX:  1.277E-01
### NNP EXTRAPOLATION WARNING ### STRUCTURE:      1 ATOM:       285 ELEMENT:  H SYMFUNC:  140 TYPE:  3 VALUE:  2.011E-01 MIN:  1.133E-11 MAX:  1.921E-01
### NNP EXTRAPOLATION WARNING ### STRUCTURE:      1 ATOM:       284 ELEMENT:  H SYMFUNC:  140 TYPE:  3 VALUE:  1.993E-01 MIN:  1.133E-11 MAX:  1.921E-01
### NNP EXTRAPOLATION WARNING ### STRUCTURE:      1 ATOM:       283 ELEMENT:  H SYMFUNC:  140 TYPE:  3 VALUE:  1.929E-01 MIN:  1.133E-11 MAX:  1.921E-01
### NNP EXTRAPOLATION WARNING ### STRUCTURE:      9 ATOM:       336 ELEMENT:  H SYMFUNC:  143 TYPE:  3 VALUE:  2.247E-01 MIN:  3.091E-67 MAX:  7.356E-02
### NNP EXTRAPOLATION WARNING ### STRUCTURE:     12 ATOM:        16 ELEMENT:  H SYMFUNC:  143 TYPE:  3 VALUE:  1.162E-01 MIN:  3.091E-67 MAX:  7.356E-02
### NNP EXTRAPOLATION WARNING ### STRUCTURE:     19 ATOM:       208 ELEMENT:  H SYMFUNC:  143 TYPE:  3 VALUE:  3.541E-01 MIN:  3.091E-67 MAX:  7.356E-02
### NNP EXTRAPOLATION WARNING ### STRUCTURE:     22 ATOM:       368 ELEMENT:  H SYMFUNC:  143 TYPE:  3 VALUE:  1.027E-01 MIN:  3.091E-67 MAX:  7.356E-02
### NNP EXTRAPOLATION WARNING ### STRUCTURE:     19 ATOM:       208 ELEMENT:  H SYMFUNC:  149 TYPE:  3 VALUE:  3.614E-01 MIN:  9.510E-65 MAX:  3.595E-01
### NNP EXTRAPOLATION WARNING ### STRUCTURE:      9 ATOM:       411 ELEMENT:  H SYMFUNC:  153 TYPE:  9 VALUE:  4.765E+00 MIN:  4.887E+00 MAX:  4.309E+01
### NNP EXTRAPOLATION WARNING ### STRUCTURE:      9 ATOM:       411 ELEMENT:  H SYMFUNC:  165 TYPE:  9 VALUE:  2.289E+00 MIN:  2.382E+00 MAX:  2.720E+01
### NNP EXTRAPOLATION WARNING ### STRUCTURE:      1 ATOM:       284 ELEMENT:  H SYMFUNC:  210 TYPE:  9 VALUE:  7.553E-01 MIN:  6.412E-04 MAX:  5.923E-01
### NNP EXTRAPOLATION WARNING ### STRUCTURE:      1 ATOM:       285 ELEMENT:  H SYMFUNC:  216 TYPE:  9 VALUE:  6.576E-01 MIN:  2.247E-04 MAX:  4.799E-01
### NNP EXTRAPOLATION WARNING ### STRUCTURE:      1 ATOM:       284 ELEMENT:  H SYMFUNC:  216 TYPE:  9 VALUE:  5.539E-01 MIN:  2.247E-04 MAX:  4.799E-01
### NNP EXTRAPOLATION WARNING ### STRUCTURE:      1 ATOM:       283 ELEMENT:  H SYMFUNC:  216 TYPE:  9 VALUE:  6.735E-01 MIN:  2.247E-04 MAX:  4.799E-01
### NNP EXTRAPOLATION WARNING ### STRUCTURE:      1 ATOM:       285 ELEMENT:  H SYMFUNC:  217 TYPE:  9 VALUE:  1.464E+00 MIN:  1.100E-02 MAX:  1.325E+00
### NNP EXTRAPOLATION WARNING ### STRUCTURE:      1 ATOM:       284 ELEMENT:  H SYMFUNC:  217 TYPE:  9 VALUE:  1.606E+00 MIN:  1.100E-02 MAX:  1.325E+00
### NNP EXTRAPOLATION WARNING ### STRUCTURE:      1 ATOM:       283 ELEMENT:  H SYMFUNC:  217 TYPE:  9 VALUE:  1.405E+00 MIN:  1.100E-02 MAX:  1.325E+00
### NNP EXTRAPOLATION WARNING ### STRUCTURE:     19 ATOM:       208 ELEMENT:  H SYMFUNC:  262 TYPE:  9 VALUE:  6.561E-01 MIN:  1.265E-47 MAX:  4.744E-01
### NNP EXTRAPOLATION WARNING ### STRUCTURE:      1 ATOM:       283 ELEMENT:  H SYMFUNC:  264 TYPE:  9 VALUE:  8.550E-01 MIN:  1.342E-14 MAX:  7.653E-01
### NNP EXTRAPOLATION WARNING ### STRUCTURE:      9 ATOM:       336 ELEMENT:  H SYMFUNC:  268 TYPE:  9 VALUE:  5.230E-01 MIN:  5.400E-49 MAX:  4.414E-01
### NNP EXTRAPOLATION WARNING ### STRUCTURE:     19 ATOM:       208 ELEMENT:  H SYMFUNC:  268 TYPE:  9 VALUE:  6.574E-01 MIN:  5.400E-49 MAX:  4.414E-01
### NNP EXTRAPOLATION WARNING ### STRUCTURE:      2 ATOM:       466 ELEMENT:  C SYMFUNC:   20 TYPE:  2 VALUE:  1.749E+00 MIN:  1.810E+00 MAX:  7.958E+00
### NNP EXTRAPOLATION WARNING ### STRUCTURE:      5 ATOM:       325 ELEMENT:  C SYMFUNC:   27 TYPE:  2 VALUE:  7.669E-01 MIN:  2.239E-14 MAX:  7.646E-01
### NNP EXTRAPOLATION WARNING ### STRUCTURE:      7 ATOM:       197 ELEMENT:  C SYMFUNC:   27 TYPE:  2 VALUE:  7.999E-01 MIN:  2.239E-14 MAX:  7.646E-01
### NNP EXTRAPOLATION WARNING ### STRUCTURE:      1 ATOM:       278 ELEMENT:  C SYMFUNC:   73 TYPE:  3 VALUE:  2.186E+00 MIN:  1.999E-02 MAX:  1.334E+00
### NNP EXTRAPOLATION WARNING ### STRUCTURE:      1 ATOM:       278 ELEMENT:  C SYMFUNC:   97 TYPE:  3 VALUE:  1.219E+00 MIN:  2.299E-04 MAX:  3.544E-01
### NNP EXTRAPOLATION WARNING ### STRUCTURE:      5 ATOM:       325 ELEMENT:  C SYMFUNC:  141 TYPE:  3 VALUE:  5.331E-02 MIN:  9.319E-45 MAX:  3.491E-02
### NNP EXTRAPOLATION WARNING ### STRUCTURE:      7 ATOM:       197 ELEMENT:  C SYMFUNC:  141 TYPE:  3 VALUE:  8.265E-02 MIN:  9.319E-45 MAX:  3.491E-02
### NNP EXTRAPOLATION WARNING ### STRUCTURE:     22 ATOM:       357 ELEMENT:  C SYMFUNC:  141 TYPE:  3 VALUE:  3.788E-02 MIN:  9.319E-45 MAX:  3.491E-02
### NNP EXTRAPOLATION WARNING ### STRUCTURE:      1 ATOM:       278 ELEMENT:  C SYMFUNC:  144 TYPE:  3 VALUE:  9.158E-01 MIN:  2.233E-13 MAX:  7.750E-01
### NNP EXTRAPOLATION WARNING ### STRUCTURE:      5 ATOM:       325 ELEMENT:  C SYMFUNC:  146 TYPE:  3 VALUE:  5.138E-01 MIN:  1.701E-43 MAX:  3.872E-01
### NNP EXTRAPOLATION WARNING ### STRUCTURE:      7 ATOM:       197 ELEMENT:  C SYMFUNC:  146 TYPE:  3 VALUE:  6.332E-01 MIN:  1.701E-43 MAX:  3.872E-01
### NNP EXTRAPOLATION WARNING ### STRUCTURE:     22 ATOM:       357 ELEMENT:  C SYMFUNC:  146 TYPE:  3 VALUE:  4.066E-01 MIN:  1.701E-43 MAX:  3.872E-01
### NNP EXTRAPOLATION WARNING ### STRUCTURE:      1 ATOM:       278 ELEMENT:  C SYMFUNC:  215 TYPE:  9 VALUE:  2.015E+00 MIN:  2.240E-02 MAX:  1.465E+00
### NNP EXTRAPOLATION WARNING ### STRUCTURE:      2 ATOM:       466 ELEMENT:  C SYMFUNC:  224 TYPE:  9 VALUE:  9.215E-01 MIN:  9.346E-01 MAX:  3.133E+01
### NNP EXTRAPOLATION WARNING ### STRUCTURE:     20 ATOM:        85 ELEMENT:  C SYMFUNC:  224 TYPE:  9 VALUE:  8.816E-01 MIN:  9.346E-01 MAX:  3.133E+01
### NNP EXTRAPOLATION WARNING ### STRUCTURE:      2 ATOM:       466 ELEMENT:  C SYMFUNC:  230 TYPE:  9 VALUE:  1.561E+00 MIN:  1.719E+00 MAX:  2.939E+01
### NNP EXTRAPOLATION WARNING ### STRUCTURE:      5 ATOM:       325 ELEMENT:  C SYMFUNC:  249 TYPE:  9 VALUE:  2.443E+00 MIN:  2.733E-15 MAX:  2.271E+00
### NNP EXTRAPOLATION WARNING ### STRUCTURE:     13 ATOM:         5 ELEMENT:  C SYMFUNC:  249 TYPE:  9 VALUE:  2.276E+00 MIN:  2.733E-15 MAX:  2.271E+00
### NNP EXTRAPOLATION WARNING ### STRUCTURE:      5 ATOM:       325 ELEMENT:  C SYMFUNC:  264 TYPE:  9 VALUE:  9.761E-01 MIN:  2.963E-32 MAX:  8.386E-01
### NNP EXTRAPOLATION WARNING ### STRUCTURE:      7 ATOM:       197 ELEMENT:  C SYMFUNC:  264 TYPE:  9 VALUE:  9.674E-01 MIN:  2.963E-32 MAX:  8.386E-01
### NNP EXTRAPOLATION WARNING ### STRUCTURE:     22 ATOM:       357 ELEMENT:  C SYMFUNC:  264 TYPE:  9 VALUE:  8.708E-01 MIN:  2.963E-32 MAX:  8.386E-01
### NNP EXTRAPOLATION WARNING ### STRUCTURE:     19 ATOM:       193 ELEMENT:  O SYMFUNC:   17 TYPE:  2 VALUE:  4.347E-01 MIN:  4.370E-01 MAX:  7.612E-01
### NNP EXTRAPOLATION WARNING ### STRUCTURE:      5 ATOM:       321 ELEMENT:  O SYMFUNC:   29 TYPE:  2 VALUE:  6.623E-01 MIN:  6.655E-01 MAX:  9.431E-01
### NNP EXTRAPOLATION WARNING ### STRUCTURE:     19 ATOM:       193 ELEMENT:  O SYMFUNC:   29 TYPE:  2 VALUE:  5.682E-01 MIN:  6.655E-01 MAX:  9.431E-01
### NNP EXTRAPOLATION WARNING ### STRUCTURE:     19 ATOM:       193 ELEMENT:  O SYMFUNC:   44 TYPE:  3 VALUE:  1.509E+00 MIN:  1.612E+00 MAX:  5.692E+00
### NNP EXTRAPOLATION WARNING ### STRUCTURE:     19 ATOM:       193 ELEMENT:  O SYMFUNC:   56 TYPE:  3 VALUE:  5.822E-01 MIN:  7.622E-01 MAX:  2.212E+00
### NNP EXTRAPOLATION WARNING ### STRUCTURE:     19 ATOM:       193 ELEMENT:  O SYMFUNC:   68 TYPE:  3 VALUE:  1.805E-01 MIN:  2.513E-01 MAX:  6.474E-01
### NNP EXTRAPOLATION WARNING ### STRUCTURE:     20 ATOM:        81 ELEMENT:  O SYMFUNC:   80 TYPE:  3 VALUE:  4.364E-01 MIN:  4.439E-01 MAX:  2.445E+00
### NNP EXTRAPOLATION WARNING ### STRUCTURE:     20 ATOM:        81 ELEMENT:  O SYMFUNC:   82 TYPE:  3 VALUE:  1.002E-01 MIN:  1.196E-01 MAX:  1.418E+00
### NNP EXTRAPOLATION WARNING ### STRUCTURE:     22 ATOM:       353 ELEMENT:  O SYMFUNC:   82 TYPE:  3 VALUE:  9.374E-02 MIN:  1.196E-01 MAX:  1.418E+00
### NNP EXTRAPOLATION WARNING ### STRUCTURE:     22 ATOM:       353 ELEMENT:  O SYMFUNC:   88 TYPE:  3 VALUE:  3.343E-01 MIN:  3.644E-01 MAX:  3.465E+00
### NNP EXTRAPOLATION WARNING ### STRUCTURE:      5 ATOM:       321 ELEMENT:  O SYMFUNC:   97 TYPE:  3 VALUE:  1.488E-01 MIN:  1.857E-02 MAX:  1.328E-01
### NNP EXTRAPOLATION WARNING ### STRUCTURE:     19 ATOM:       193 ELEMENT:  O SYMFUNC:   97 TYPE:  3 VALUE:  1.859E-01 MIN:  1.857E-02 MAX:  1.328E-01
### NNP EXTRAPOLATION WARNING ### STRUCTURE:     20 ATOM:        81 ELEMENT:  O SYMFUNC:  105 TYPE:  3 VALUE:  1.204E-01 MIN:  1.279E-01 MAX:  2.139E+00
### NNP EXTRAPOLATION WARNING ### STRUCTURE:      5 ATOM:       321 ELEMENT:  O SYMFUNC:  127 TYPE:  3 VALUE:  9.938E-02 MIN:  1.414E-01 MAX:  6.201E-01
### NNP EXTRAPOLATION WARNING ### STRUCTURE:     13 ATOM:         1 ELEMENT:  O SYMFUNC:  127 TYPE:  3 VALUE:  1.296E-01 MIN:  1.414E-01 MAX:  6.201E-01
### NNP EXTRAPOLATION WARNING ### STRUCTURE:     19 ATOM:       193 ELEMENT:  O SYMFUNC:  127 TYPE:  3 VALUE:  1.372E-01 MIN:  1.414E-01 MAX:  6.201E-01
### NNP EXTRAPOLATION WARNING ### STRUCTURE:      5 ATOM:       321 ELEMENT:  O SYMFUNC:  142 TYPE:  3 VALUE:  3.977E-01 MIN:  3.502E-03 MAX:  1.778E-01
### NNP EXTRAPOLATION WARNING ### STRUCTURE:     13 ATOM:         1 ELEMENT:  O SYMFUNC:  142 TYPE:  3 VALUE:  2.257E-01 MIN:  3.502E-03 MAX:  1.778E-01
### NNP EXTRAPOLATION WARNING ### STRUCTURE:     19 ATOM:       193 ELEMENT:  O SYMFUNC:  142 TYPE:  3 VALUE:  5.838E-01 MIN:  3.502E-03 MAX:  1.778E-01
### NNP EXTRAPOLATION WARNING ### STRUCTURE:     22 ATOM:       353 ELEMENT:  O SYMFUNC:  142 TYPE:  3 VALUE:  2.276E-01 MIN:  3.502E-03 MAX:  1.778E-01
### NNP EXTRAPOLATION WARNING ### STRUCTURE:     19 ATOM:       193 ELEMENT:  O SYMFUNC:  182 TYPE:  9 VALUE:  1.105E+00 MIN:  1.387E+00 MAX:  5.324E+00
### NNP EXTRAPOLATION WARNING ### STRUCTURE:      5 ATOM:       321 ELEMENT:  O SYMFUNC:  206 TYPE:  9 VALUE:  3.976E-01 MIN:  4.034E-01 MAX:  1.227E+00
### NNP EXTRAPOLATION WARNING ### STRUCTURE:     13 ATOM:         1 ELEMENT:  O SYMFUNC:  206 TYPE:  9 VALUE:  3.623E-01 MIN:  4.034E-01 MAX:  1.227E+00
### NNP EXTRAPOLATION WARNING ### STRUCTURE:     19 ATOM:       193 ELEMENT:  O SYMFUNC:  206 TYPE:  9 VALUE:  1.646E-01 MIN:  4.034E-01 MAX:  1.227E+00
### NNP EXTRAPOLATION WARNING ### STRUCTURE:     20 ATOM:        81 ELEMENT:  O SYMFUNC:  218 TYPE:  9 VALUE:  9.223E+00 MIN:  9.583E+00 MAX:  5.753E+01
### NNP EXTRAPOLATION WARNING ### STRUCTURE:     20 ATOM:        81 ELEMENT:  O SYMFUNC:  224 TYPE:  9 VALUE:  8.405E+00 MIN:  9.029E+00 MAX:  5.680E+01
### NNP EXTRAPOLATION WARNING ### STRUCTURE:     19 ATOM:       193 ELEMENT:  O SYMFUNC:  242 TYPE:  9 VALUE:  3.497E-01 MIN:  3.789E-01 MAX:  4.040E+00
### NNP EXTRAPOLATION WARNING ### STRUCTURE:      5 ATOM:       321 ELEMENT:  O SYMFUNC:  254 TYPE:  9 VALUE:  2.898E-01 MIN:  4.929E-01 MAX:  2.020E+00
### NNP EXTRAPOLATION WARNING ### STRUCTURE:     13 ATOM:         1 ELEMENT:  O SYMFUNC:  254 TYPE:  9 VALUE:  3.026E-01 MIN:  4.929E-01 MAX:  2.020E+00
### NNP EXTRAPOLATION WARNING ### STRUCTURE:     19 ATOM:       193 ELEMENT:  O SYMFUNC:  254 TYPE:  9 VALUE:  1.492E-01 MIN:  4.929E-01 MAX:  2.020E+00
### NNP EXTRAPOLATION WARNING ### STRUCTURE:     22 ATOM:       353 ELEMENT:  O SYMFUNC:  254 TYPE:  9 VALUE:  4.513E-01 MIN:  4.929E-01 MAX:  2.020E+00
