ITEM: TIMESTEP
0
ITEM: NUMBER OF ATOMS
100
ITEM: BOX BOUNDS xy xz yz pp pp pp
0.0000000000000000e+00 1.8580770000000001e+01 0.0000000000000000e+00
0.0000000000000000e+00 1.8580770000000001e+01 0.0000000000000000e+00
0.0000000000000000e+00 1.8580770000000001e+01 0.0000000000000000e+00
ITEM: ATOMS id element x y z
1 O 12.3466 3.95684 5.12344
2 C 9.92683 3.43628 8.1343
3 C 10.53 3.34684 6.80618
4 C 10.464 4.43408 9.09368
5 C 11.6922 4.17583 6.37366
6 C 8.7227 2.47651 8.50925
7 C 11.5373 5.3677 8.62895
8 C 12.2277 5.13897 7.36726
9 H 9.95687 2.78302 5.95283
10 H 10.0881 4.60307 10.1225
11 H 8.91627 1.44221 8.03717
12 H 8.38853 2.34463 9.62575
13 H 7.77415 2.97371 8.15406
14 H 11.8542 6.21607 9.35525
15 H 12.9962 5.86726 7.03477
16 H 12.781 4.77587 4.83817
17 O 7.14014 5.06405 2.57914
18 C 9.92861 7.30664 4.01911
19 C 9.04667 6.64725 2.98025
20 C 9.67892 7.13185 5.46589
21 C 8.03803 5.6773 3.45415
22 C 11.2322 8.02747 3.52617
23 C 8.64471 6.24758 5.86402
24 C 7.761 5.53481 4.89473
25 H 9.27046 6.98295 1.89943
26 H 10.4472 7.63601 6.17779
27 H 11.6426 8.83002 4.32142
28 H 11.9767 7.2545 3.37695
29 H 11.1255 8.49727 2.49797
30 H 8.55732 6.23455 6.98177
31 H 7.06404 4.69186 5.27669
32 H 6.66631 4.54034 3.23925
33 O 17.8595 1.49165 11.6304
34 C 16.0282 1.97349 8.25019
35 C 16.6676 2.30407 9.54766
36 C 16.298 0.69887 7.57905
37 C 17.4614 1.24279 10.2594
38 C 15.2348 3.02437 7.40033
39 C 17.2702 18.3307 8.17063
40 C 17.7967 18.5799 9.50616
41 H 16.5522 3.34004 9.97717
42 H 15.8368 0.47164 6.53072
43 H 15.3096 4.14313 7.6941
44 H 15.6854 2.87117 6.32741
45 H 14.1382 2.89397 7.37299
46 H 17.5547 17.3238 7.66413
47 H 18.377 17.6993 9.85648
48 H 18.0927 2.46669 11.9013
49 O 2.66012 4.57043 11.4988
50 C 2.43376 3.27592 7.89466
51 C 2.15503 3.50266 9.31634
52 C 3.68266 3.76172 7.26466
53 C 3.03687 4.36196 10.1304
54 C 1.29788 2.53117 7.00624
55 C 4.55014 4.65673 8.06285
56 C 4.13715 4.97796 9.46103
57 H 1.26019 3.05995 9.78974
58 H 3.8763 3.51196 6.17052
59 H 0.59514 3.16383 6.42981
60 H 1.86539 1.8759 6.26378
61 H 0.67102 2.10401 7.73698
62 H 5.47388 5.13333 7.55638
63 H 4.82823 5.71155 10.0332
64 H 3.48544 4.45226 12.0839
65 O 11.5647 8.90391 13.8078
66 C 14.1276 9.2668 11.1035
67 C 13.2126 9.55146 12.1558
68 C 14.368 7.8593 10.6958
69 C 12.5076 8.47896 12.837
70 C 14.9226 10.4311 10.3877
71 C 13.7639 6.72662 11.4707
72 C 12.7445 7.07665 12.5069
73 H 13.1348 10.6114 12.4333
74 H 15.191 7.68252 10.0238
75 H 14.1311 11.2554 10.3166
76 H 15.7772 10.9342 10.9337
77 H 15.0883 10.1299 9.26269
78 H 14.2434 5.77012 11.1407
79 H 12.2529 6.31403 13.1585
80 H 11.193 9.80802 13.7473
81 O 16.447 13.2146 2.92024
82 C 16.7938 14.1024 6.68346
83 C 16.9217 13.2976 5.43397
84 C 15.9487 15.27 6.77333
85 C 16.2144 13.782 4.22808
86 C 17.568 13.6692 7.99786
87 C 15.185 15.7248 5.58664
88 C 15.3514 15.0107 4.2878
89 H 17.5743 12.3869 5.33304
90 H 15.8209 15.8097 7.73545
91 H 0.00864 14.2458 8.01814
92 H 16.9516 13.9728 8.87701
93 H 17.8488 12.5216 8.00707
94 H 14.4163 16.57 5.63117
95 H 14.8179 15.3994 3.33725
96 H 15.7936 13.5743 2.22865
97 O 3.01597 10.7671 2.52668
98 C 2.98832 7.01435 3.57166
99 C 3.39819 8.35728 3.02934
100 C 1.637 6.89522 4.04125
101 C 2.51313 9.53232 2.96799
102 C 4.03016 5.84933 3.53192
103 C 0.80028 8.05119 4.07043
104 C 1.16176 9.33037 3.52599
105 H 4.47938 8.43212 2.65615
106 H 1.22361 5.95661 4.48779
107 H 3.61338 4.79017 3.46658
108 H 4.74581 6.02798 2.69262
109 H 4.62762 5.74135 4.49024
110 H 18.2646 7.89144 4.29397
111 H 0.37084 10.1591 3.57703
112 H 2.37023 11.579 2.70597
113 O 2.08764 8.02292 10.7346
114 C 2.55923 10.9327 8.32007
115 C 2.29275 10.2523 9.55863
116 C 2.51345 10.3047 6.9766
117 C 2.25728 8.77661 9.55108
118 C 2.82544 12.4651 8.43264
119 C 2.45688 8.79734 6.95953
120 C 2.39132 8.08857 8.23305
121 H 2.27474 10.9064 10.4426
122 H 2.57261 10.9557 5.98418
123 H 3.8919 12.7483 8.1526
124 H 2.11614 13.1518 7.79429
125 H 2.75304 12.7795 9.58321
126 H 2.70984 8.11551 6.13422
127 H 2.34036 6.92927 8.05461
128 H 2.47699 7.08565 10.6814
129 O 18.4428 4.51398 11.9621
130 C 16.0384 5.33109 14.9667
131 C 16.5141 4.84396 13.6257
132 C 16.9878 5.96565 15.8504
133 C 17.9666 4.97947 13.219
134 C 14.5277 5.285 15.3929
135 C 18.403 6.20043 15.494
136 C 0.33954 5.67229 14.2211
137 H 15.8814 4.29333 12.8525
138 H 16.5226 6.58346 16.6875
139 H 14.2114 4.82423 16.3699
140 H 14.0967 6.28158 15.5346
141 H 13.8064 4.75769 14.6343
142 H 0.48518 6.81954 16.1826
143 H 1.47443 5.70727 13.9861
144 H 0.85224 4.64937 11.8726
145 O 7.31337 17.8003 13.3988
146 C 4.52759 17.9997 10.6466
147 C 5.47925 17.3965 11.6838
148 C 4.75633 0.78421 10.2176
149 C 6.52267 18.2451 12.2975
150 C 3.261 17.1811 10.1737
151 C 5.84548 1.57633 10.8092
152 C 6.89414 0.99213 11.7001
153 H 5.30391 16.3321 12.0641
154 H 4.01731 1.40153 9.55094
155 H 3.41837 16.9375 9.07083
156 H 3.15046 16.2405 10.8749
157 H 2.35939 17.7856 10.2143
158 H 5.7675 2.68737 10.4152
159 H 7.66545 1.67121 12.1692
160 H 8.21968 18.2335 13.2393
161 O 1.81389 9.39559 18.2837
162 C 5.33742 8.48532 16.967
163 C 4.21709 8.86799 17.8705
164 C 5.10133 8.21074 15.5593
165 C 2.81029 8.96591 17.3764
166 C 6.86932 8.46485 17.4888
167 C 3.71977 8.28506 15.0604
168 C 2.57746 8.68464 15.9526
169 H 4.37637 8.96366 0.40145
170 H 6.07758 7.97544 14.9233
171 H 6.99218 9.01849 18.4445
172 H 7.31235 7.37944 17.7007
173 H 7.5404 8.84552 16.6546
174 H 3.5555 8.03433 13.9601
175 H 1.53475 8.76697 15.4729
176 H 2.14155 9.68932 0.59766
177 O 8.7098 16.6854 6.56667
178 C 11.5916 17.2053 8.95969
179 C 10.8667 17.0994 7.67313
180 C 10.9233 16.8334 10.2074
181 C 9.49402 16.6778 7.70229
182 C 13.0892 17.7099 8.88866
183 C 9.53351 16.6201 10.2633
184 C 8.80253 16.4905 9.0201
185 H 11.3973 17.4054 6.68925
186 H 11.5254 17.0084 11.2168
187 H 13.0947 0.26051 8.82721
188 H 13.7028 17.3006 9.76617
189 H 13.501 17.4822 7.88764
190 H 9.01637 16.4636 11.2551
191 H 7.65913 16.3253 9.11284
192 H 7.83549 16.267 6.81244
193 O 10.3863 11.3311 17.4747
194 C 7.67105 10.7989 1.69377
195 C 8.84067 10.6253 0.85277
196 C 6.72203 11.8637 1.3002
197 C 9.15536 11.4932 18.2251
198 C 7.40558 10.0042 3.04925
199 C 6.99075 12.7046 0.09807
200 C 8.19927 12.5657 17.8762
201 H 9.52361 9.74201 1.18815
202 H 5.73292 12.0576 1.81804
203 H 6.95259 10.6675 3.81595
204 H 6.67621 9.18239 2.87607
205 H 8.39246 9.51628 3.4775
206 H 6.145 13.3848 18.391
207 H 8.42225 13.2433 17.0239
208 H 10.3401 11.3579 16.5058
209 O 9.59142 1.35682 14.6354
210 C 13.3216 0.36619 13.9848
211 C 11.8731 0.51296 13.7493
212 C 13.8794 0.69295 15.3023
213 C 10.9673 1.09829 14.8422
214 C 14.3183 18.4931 12.8084
215 C 12.9389 1.0874 16.3876
216 C 11.4985 1.25884 16.161
217 H 11.313 0.19336 12.8295
218 H 14.9952 0.62156 15.4769
219 H 14.8459 17.6102 13.1501
220 H 13.797 18.1674 11.8201
221 H 15.03 0.7646 12.4943
222 H 13.2675 1.25903 17.5449
223 H 10.7334 1.48458 16.9151
224 H 9.1288 1.90675 15.4079
225 O 14.7243 7.43039 4.10328
226 C 16.6459 7.34016 7.42761
227 C 15.7534 6.91438 6.34321
228 C 16.9517 8.74959 7.63626
229 C 15.2786 7.85327 5.35626
230 C 17.3655 6.27761 8.33984
231 C 16.3981 9.71924 6.66469
232 C 15.5834 9.28704 5.51927
233 H 15.5446 5.85836 6.22491
234 H 17.6775 9.1958 8.42849
235 H 18.3723 6.62847 8.75784
236 H 16.7138 6.01377 9.20314
237 H 17.3259 5.39588 7.66819
238 H 16.5227 10.8074 6.85208
239 H 15.2746 10.1513 4.85681
240 H 14.4641 8.21557 3.46513
241 O 11.7137 11.3911 1.88685
242 C 12.2846 13.0593 5.2566
243 C 12.4445 12.1852 4.07182
244 C 11.1004 13.9404 5.32677
245 C 11.4928 12.2222 2.98154
246 C 13.1776 12.9337 6.51868
247 C 10.1337 14.0147 4.23086
248 C 10.3246 13.1013 3.04061
249 H 13.3017 11.4104 3.98812
250 H 10.9249 14.5795 6.2069
251 H 12.5078 12.5973 7.43942
252 H 14.188 12.4176 6.40114
253 H 13.3637 13.9835 6.8929
254 H 9.37042 14.8626 4.3544
255 H 9.5114 13.1678 2.28243
256 H 10.8835 11.4095 1.2739
257 O 8.16454 2.54495 16.8046
258 C 4.46658 2.10294 15.7265
259 C 5.96017 1.95054 15.7872
260 C 3.85891 3.20363 16.4768
261 C 6.77329 2.76341 16.7097
262 C 3.66492 1.26751 14.663
263 C 4.6911 4.03316 17.2595
264 C 6.13633 3.81698 17.4997
265 H 6.40273 1.14935 15.1291
266 H 2.72694 3.38728 16.4031
267 H 2.53471 1.42231 14.8657
268 H 3.99147 1.42429 13.5597
269 H 3.75291 0.10348 14.7797
270 H 4.22953 4.86557 17.9798
271 H 6.66854 4.39049 18.3609
272 H 8.63752 2.66625 17.6766
273 O 9.18407 1.68214 2.86659
274 C 6.06537 1.0565 5.02882
275 C 7.47711 1.15297 4.68137
276 C 5.03483 1.21381 4.00791
277 C 7.82525 1.64209 3.29313
278 C 5.56297 0.7401 6.61087
279 C 5.40186 1.60881 2.63664
280 C 6.7724 1.75279 2.23322
281 H 8.29473 1.03092 5.50936
282 H 3.91696 1.11231 4.33991
283 H 5.93512 1.57626 7.24072
284 H 4.44925 0.41318 6.79221
285 H 6.21648 18.4159 6.97742
286 H 4.67386 1.8695 1.82987
287 H 6.96589 2.20382 1.15048
288 H 9.8649 1.54807 3.5596
289 O 9.80094 12.2056 14.4751
290 C 12.9807 13.4086 12.6535
291 C 12.0741 13.0673 13.7065
292 C 12.4709 13.3976 11.2555
293 C 10.6773 12.7197 13.4549
294 C 14.4941 13.7221 13.0253
295 C 11.0711 13.1047 10.8863
296 C 10.2231 12.6594 12.0341
297 H 12.4823 12.9793 14.7435
298 H 13.209 13.5117 10.4291
299 H 14.4808 14.3912 14.0047
300 H 15.0276 12.7785 13.2469
301 H 14.8673 14.1569 12.058
302 H 10.635 13.0667 9.83571
303 H 9.14003 12.3088 11.9159
304 H 8.8901 11.8597 14.1666
305 O 13.6029 9.34753 1.99147
306 C 14.886 10.1872 17.0247
307 C 13.9378 9.99265 18.1502
308 C 16.3124 9.7473 17.2577
309 C 14.4599 9.42859 0.82587
310 C 14.3831 10.7157 15.5982
311 C 16.837 9.15779 18.4868
312 C 15.8783 9.06796 0.99858
313 H 12.8432 10.2233 18.2437
314 H 16.9946 9.887 16.2859
315 H 13.4487 10.2631 15.3454
316 H 14.2892 11.8009 15.3997
317 H 15.0942 10.4712 14.7173
318 H 17.8967 8.77456 18.5017
319 H 16.247 8.8996 2.07713
320 H 12.8842 10.0343 1.8829
321 O 8.45626 11.9654 5.68888
322 C 9.8146 9.57279 8.34153
323 C 9.77379 10.6392 7.36334
324 C 8.55783 8.76585 8.55589
325 C 8.50028 10.8872 6.6153
326 C 11.1859 9.32552 9.17655
327 C 7.29389 8.95593 7.79165
328 C 7.33521 9.93938 6.7723
329 H 10.6939 11.3113 7.24634
330 H 8.71342 7.86592 9.23192
331 H 11.7641 10.311 9.29493
332 H 10.9801 9.11223 10.2165
333 H 11.8782 8.45801 8.82057
334 H 6.37031 8.4794 8.2342
335 H 6.37923 10.2573 6.19363
336 H 9.19993 12.62 5.48251
337 O 0.80945 12.9759 2.43717
338 C 0.57651 13.1296 17.1718
339 C 0.12568 13.0054 18.5523
340 C 2.02205 13.4258 16.8497
341 C 1.17861 13.1632 1.03574
342 C 18.1927 12.822 15.9956
343 C 3.00816 13.6434 17.8732
344 C 2.61325 13.4294 0.68499
345 H 17.612 12.7102 0.19734
346 H 2.22675 13.4962 15.7065
347 H 18.2985 13.4182 15.0542
348 H 18.2798 11.7705 15.6484
349 H 17.1199 12.9063 16.4044
350 H 4.02807 13.988 17.5256
351 H 3.39286 13.4636 1.42191
352 H 18.3832 12.9345 2.47693
353 O 17.4393 15.4568 11.8058
354 C 0.49626 12.0599 12.5201
355 C 18.112 13.0785 12.0694
356 C 1.82503 12.4506 13.0861
357 C 18.4731 14.5527 12.1094
358 C 18.4719 10.5637 12.6036
359 C 2.20228 13.9362 12.9976
360 C 1.279 14.9477 12.5238
361 H 17.144 12.7009 11.682
362 H 2.49036 11.6311 13.4732
363 H 0.38853 10.0214 13.4636
364 H 17.3479 10.5014 12.8344
365 H 0.18134 10.0654 11.5673
366 H 3.2696 14.1783 13.466
367 H 1.67558 16.0285 12.6434
368 H 17.7595 16.3124 12.2093
369 O 14.1903 13.3539 1.07734
370 C 12.4696 15.2926 16.7954
371 C 12.6176 14.3837 17.9339
372 C 13.6401 15.7866 16.0365
373 C 14.0145 14.097 18.4389
374 C 10.9932 15.6868 16.3676
375 C 14.9647 15.5103 16.5822
376 C 15.1922 14.653 17.7489
377 H 11.7338 14.1889 0.07866
378 H 13.4873 16.3878 15.0986
379 H 10.3598 15.7397 17.3403
380 H 10.8977 16.8112 15.9077
381 H 10.3819 15.0596 15.5725
382 H 15.8144 15.9828 16.0092
383 H 16.2533 14.4478 17.9742
384 H 13.442 12.8258 1.42006
385 O 9.85624 3.02823 0.50231
386 C 11.5835 6.35809 18.1172
387 C 10.5896 5.24549 18.3034
388 C 13.0047 6.13593 18.553
389 C 10.9474 3.98876 0.3459
390 C 11.14 7.7226 17.4041
391 C 13.3306 4.87751 0.71495
392 C 12.2749 3.90175 0.97415
393 H 9.55182 5.4975 17.9461
394 H 13.7174 6.9714 18.3906
395 H 10.0136 7.59944 16.9033
396 H 11.1919 8.5487 18.0873
397 H 11.8888 7.96037 16.5842
398 H 14.4698 4.69801 1.00976
399 H 12.441 2.85893 1.40961
400 H 9.77184 2.87259 1.45237
401 O 6.19291 14.8958 7.24645
402 C 2.89143 15.7201 5.38289
403 C 4.01561 15.845 6.32641
404 C 2.75811 14.5505 4.46245
405 C 5.02587 14.7603 6.3988
406 C 1.74784 16.8486 5.48208
407 C 3.78111 13.4345 4.62247
408 C 4.86425 13.5351 5.57805
409 H 4.19614 16.7094 6.98829
410 H 1.8262 14.5875 3.83625
411 H 1.67286 17.4128 4.5293
412 H 0.66862 16.3959 5.65391
413 H 1.9008 17.5699 6.35919
414 H 3.63662 12.607 3.92174
415 H 5.62616 12.6628 5.6745
416 H 6.09505 14.1389 7.86146
417 O 11.5861 1.17767 4.75601
418 C 14.0811 0.06028 2.01035
419 C 13.489 0.8227 3.14156
420 C 13.3422 17.4089 1.63511
421 C 12.2383 0.37305 3.80901
422 C 15.4129 0.48761 1.24557
423 C 12.1018 16.925 2.29212
424 C 11.5308 17.7435 3.32749
425 H 14.1013 1.70559 3.41179
426 H 13.7591 16.6358 0.82404
427 H 16.2619 0.17838 1.87064
428 H 15.397 0.02867 0.22464
429 H 15.4309 1.6083 1.00606
430 H 11.4508 16.0804 1.86021
431 H 10.5538 17.4673 3.68413
432 H 12.0479 2.03995 5.01922
433 O 5.47435 16.7091 16.1986
434 C 6.35398 16.1246 1.41547
435 C 5.64252 16.2414 0.16668
436 C 7.75608 16.6751 1.37441
437 C 6.24279 16.7393 17.4628
438 C 5.5774 15.7203 2.74316
439 C 8.36782 17.3217 0.16422
440 C 7.52409 17.3379 17.4981
441 H 4.55683 15.9481 0.0188
442 H 8.44057 16.6314 2.22161
443 H 5.61038 14.6012 2.88714
444 H 5.99421 16.3119 3.62712
445 H 4.51773 16.069 2.52491
446 H 9.35307 17.7686 0.16532
447 H 7.99044 17.8908 16.5893
448 H 5.99715 17.1806 15.5178
449 O 6.47468 12.3818 9.14386
450 C 6.1409 12.8918 13.0335
451 C 6.31773 13.2685 11.5797
452 C 5.66934 11.5338 13.4322
453 C 6.13073 12.1724 10.5569
454 C 6.28085 14.0669 14.1052
455 C 5.3597 10.5454 12.411
456 C 5.58501 10.8596 10.9779
457 H 6.76546 14.3072 11.322
458 H 5.7589 11.3365 14.5363
459 H 6.83852 15.0526 13.6842
460 H 5.22532 14.4538 14.5285
461 H 6.89274 13.7147 14.9881
462 H 5.04519 9.50016 12.7933
463 H 5.29394 10.0654 10.2503
464 H 6.9082 11.5928 8.7614
465 O 4.67847 4.75857 13.4222
466 C 8.40764 5.59661 13.1565
467 C 7.11956 4.91654 13.519
468 C 8.40836 6.7697 12.2587
469 C 5.83447 5.50623 13.0481
470 C 9.75031 5.12318 13.7857
471 C 7.10496 7.37456 11.8493
472 C 5.85169 6.86322 12.3937
473 H 7.08545 4.01821 14.308
474 H 9.42676 7.19753 11.9696
475 H 10.2905 4.79551 12.8298
476 H 10.2876 5.91865 14.3704
477 H 9.61911 4.2696 14.5929
478 H 7.00248 8.35796 11.2206
479 H 4.90584 7.36283 11.9851
480 H 5.00873 4.25039 14.2318
481 O 15.4209 4.45184 3.63153
482 C 0.01222 4.93166 1.38007
483 C 17.366 5.2889 2.20403
484 C 0.59039 3.52444 1.62117
485 C 16.6614 4.27012 3.05117
486 C 0.72619 5.9362 0.36342
487 C 0.00728 2.65231 2.58364
488 C 17.3611 2.95581 3.24455
489 H 16.9026 6.32156 2.041
490 H 1.65623 3.3056 1.25546
491 H 1.39653 6.69902 0.85527
492 H 1.26284 5.47407 18.0286
493 H 18.4541 6.53666 18.5617
494 H 0.37174 1.5641 2.69359
495 H 16.8261 2.19241 3.91935
496 H 15.2084 5.43633 3.71867
497 O 17.9479 18.0227 13.57
498 C 0.57283 18.2203 17.2455
499 C 0.39324 17.6964 15.8919
500 C 0.02208 0.99483 17.5871
501 C 18.273 18.5393 14.9042
502 C 1.08677 17.3755 18.4465
503 C 18.038 1.88601 16.5699
504 C 17.8059 1.36802 15.2326
505 H 0.74361 16.5975 15.5574
506 H 0.2554 1.41318 18.5731
507 H 0.19308 16.9337 0.45481
508 H 1.70953 16.4471 18.1853
509 H 1.63545 18.0126 0.65348
510 H 17.6495 2.82871 16.9264
511 H 17.1459 1.87675 14.4802
512 H 17.7707 0.21193 12.949
ITEM: TIMESTEP
1
ITEM: NUMBER OF ATOMS
512
ITEM: BOX BOUNDS xy xz yz pp pp pp
-8.4821901322241208e-06 1.8580510991449998e+01 -8.4821901322241208e-06
0.0000000000000000e+00 1.8580572965596613e+01 1.2442254181701488e-06
0.0000000000000000e+00 1.8580505129622701e+01 3.6966874785429458e-06
ITEM: ATOMS id element x y z
1 O 12.3427 3.95434 5.12378
2 C 9.93008 3.43451 8.13756
3 C 10.5317 3.3504 6.80957
4 C 10.4637 4.43293 9.09702
5 C 11.6886 4.1756 6.37231
6 C 8.72677 2.47332 8.51145
7 C 11.5359 5.36928 8.63088
8 C 12.229 5.14257 7.36297
9 H 9.96237 2.79052 5.94612
10 H 10.0847 4.6057 10.1099
11 H 8.90161 1.43557 8.02998
12 H 8.39752 2.34803 9.63308
13 H 7.76782 2.97741 8.14121
14 H 11.8544 6.22007 9.34573
15 H 12.9888 5.86148 7.02449
16 H 12.7735 4.76571 4.83753
17 O 7.13839 5.06522 2.58007
18 C 9.93092 7.30909 4.01875
19 C 9.05043 6.6487 2.98163
20 C 9.6813 7.13563 5.46155
21 C 8.03788 5.6773 3.45523
22 C 11.2356 8.02915 3.52522
23 C 8.64556 6.24394 5.86611
24 C 7.76014 5.53119 4.89388
25 H 9.27595 6.97856 1.91602
26 H 10.4436 7.62278 6.16114
27 H 11.6304 8.81249 4.32656
28 H 11.9782 7.25741 3.38747
29 H 11.1352 8.5106 2.50352
30 H 8.55811 6.24753 6.99106
31 H 7.0596 4.6975 5.26426
32 H 6.66023 4.52784 3.24087
33 O 17.8572 1.48924 11.6333
34 C 16.0285 1.97564 8.25251
35 C 16.6694 2.30691 9.54619
36 C 16.295 0.696706 7.57715
37 C 17.4607 1.24605 10.2592
38 C 15.2377 3.02425 7.39634
39 C 17.2698 18.3282 8.17455
40 C 17.7945 18.5797 9.50187
41 H 16.5401 3.33718 9.97008
42 H 15.8357 0.477918 6.54806
43 H 15.3187 4.15559 7.68083
44 H 15.6919 2.87821 6.32022
45 H 14.1244 2.8825 7.37507
46 H 17.5622 17.3406 7.67228
47 H 18.3832 17.702 9.8419
48 H 18.0933 2.46825 11.9094
49 O 2.65903 4.57339 11.496
50 C 2.43375 3.2736 7.8975
51 C 2.15442 3.49945 9.31686
52 C 3.68678 3.76564 7.26831
53 C 3.03834 4.35872 10.127
54 C 1.29658 2.53393 7.00722
55 C 4.55379 4.65526 8.06558
56 C 4.13451 4.97946 9.45813
57 H 1.26873 3.04633 9.77754
58 H 3.87806 3.50403 6.16411
59 H 0.583793 3.16512 6.42352
60 H 1.86464 1.87113 6.26567
61 H 0.684209 2.09461 7.74923
62 H 5.46188 5.12223 7.55828
63 H 4.84005 5.72171 10.0166
64 H 3.4715 4.44151 12.0847
65 O 11.5611 8.90584 13.8081
66 C 14.1252 9.26349 11.1011
67 C 13.2164 9.55112 12.159
68 C 14.3653 7.86136 10.6953
69 C 12.5042 8.48296 12.8387
70 C 14.9218 10.4297 10.3865
71 C 13.7653 6.72841 11.466
72 C 12.7487 7.08052 12.5071
73 H 13.1213 10.6153 12.4231
74 H 15.203 7.68567 10.0231
75 H 14.1272 11.2551 10.3114
76 H 15.7884 10.9415 10.9237
77 H 15.1022 10.1355 9.26707
78 H 14.2271 5.76746 11.154
79 H 12.2392 6.32784 13.1589
80 H 11.1968 9.80957 13.7454
81 O 16.4442 13.2183 2.92204
82 C 16.7951 14.1025 6.68012
83 C 16.925 13.2966 5.4298
84 C 15.9497 15.2661 6.76924
85 C 16.2128 13.7843 4.23152
86 C 17.5704 13.667 7.99364
87 C 15.1852 15.7258 5.58975
88 C 15.3546 15.0103 4.2849
89 H 17.5703 12.4021 5.3297
90 H 15.8164 15.7973 7.74605
91 H 18.5784 14.2523 8.03271
92 H 16.9648 13.9637 8.87314
93 H 17.8535 12.5209 7.99912
94 H 14.4091 16.5656 5.61982
95 H 14.8094 15.3932 3.33657
96 H 15.8092 13.5775 2.24035
97 O 3.01291 10.7686 2.52906
98 C 2.99081 7.01719 3.57328
99 C 3.39703 8.35437 3.03302
100 C 1.63689 6.89627 4.04091
101 C 2.51421 9.53035 2.97192
102 C 4.02877 5.85067 3.53464
103 C 0.801969 8.05458 4.07434
104 C 1.16401 9.32836 3.52679
105 H 4.47373 8.44126 2.67106
106 H 1.21828 5.9517 4.47677
107 H 3.61451 4.77726 3.46043
108 H 4.75086 6.0398 2.6962
109 H 4.62833 5.75302 4.47626
110 H 18.2765 7.90117 4.28125
111 H 0.384326 10.1432 3.57059
112 H 2.37697 11.5794 2.71411
113 O 2.09099 8.02546 10.7379
114 C 2.55828 10.93 8.32079
115 C 2.29193 10.2554 9.55448
116 C 2.51329 10.3007 6.97226
117 C 2.25438 8.77267 9.55248
118 C 2.8223 12.4625 8.43309
119 C 2.45835 8.7936 6.95529
120 C 2.39026 8.08579 8.23089
121 H 2.28737 10.9048 10.4395
122 H 2.56641 10.9578 5.99459
123 H 3.89526 12.7329 8.15761
124 H 2.11488 13.147 7.79771
125 H 2.75947 12.7702 9.56662
126 H 2.71534 8.12524 6.13834
127 H 2.33289 6.92196 8.04487
128 H 2.47875 7.10131 10.6768
129 O 18.4398 4.51355 11.9624
130 C 16.0426 5.32945 14.9647
131 C 16.5124 4.8456 13.6267
132 C 16.9889 5.96571 15.853
133 C 17.9681 4.97889 13.2231
134 C 14.5282 5.28565 15.3941
135 C 18.4063 6.2042 15.4967
136 C 0.335392 5.67312 14.218
137 H 15.8853 4.27988 12.8668
138 H 16.52 6.56999 16.6886
139 H 14.1993 4.82524 16.3554
140 H 14.0827 6.27809 15.5399
141 H 13.7954 4.7675 14.642
142 H 0.499168 6.823 16.1665
143 H 1.47472 5.70334 13.9882
144 H 0.858265 4.63801 11.862
145 O 7.31524 17.8018 13.3964
146 C 4.52483 18.0007 10.6503
147 C 5.48144 17.4007 11.6845
148 C 4.75984 0.788171 10.2185
149 C 6.52327 18.243 12.2956
150 C 3.2641 17.1778 10.1727
151 C 5.84788 1.57722 10.807
152 C 6.89289 0.99396 11.7025
153 H 5.30194 16.3463 12.0524
154 H 4.01697 1.39418 9.5608
155 H 3.41683 16.924 9.07161
156 H 3.14114 16.2383 10.874
157 H 2.36411 17.7993 10.2103
158 H 5.77407 2.68862 10.4191
159 H 7.67789 1.66107 12.1604
160 H 8.22515 18.2334 13.243
161 O 1.81295 9.39439 18.2868
162 C 5.33329 8.48481 16.9706
163 C 4.21631 8.8637 17.874
164 C 5.10486 8.21519 15.5627
165 C 2.8079 8.96309 17.3776
166 C 6.8705 8.46083 17.4854
167 C 3.71773 8.2831 15.0616
168 C 2.5745 8.68451 15.951
169 H 4.37042 8.96647 0.396671
170 H 6.0895 7.984 14.9148
171 H 6.99202 9.03111 18.4408
172 H 7.29881 7.37938 17.7086
173 H 7.53504 8.83613 16.6604
174 H 3.55161 8.02463 13.9744
175 H 1.52799 8.76803 15.467
176 H 2.14855 9.69721 0.608234
177 O 8.71041 16.684 6.56672
178 C 11.5883 17.2031 8.96345
179 C 10.8666 17.0993 7.66889
180 C 10.9224 16.8348 10.2029
181 C 9.49628 16.678 7.69934
182 C 13.0921 17.709 8.89037
183 C 9.53215 16.6216 10.2602
184 C 8.80533 16.4919 9.02401
185 H 11.4081 17.4052 6.69382
186 H 11.5148 17.021 11.2135
187 H 13.0847 0.245533 8.82225
188 H 13.6913 17.2936 9.77843
189 H 13.501 17.4855 7.87923
190 H 9.02441 16.4755 11.2492
191 H 7.65837 16.3153 9.10799
192 H 7.83032 16.2555 6.82608
193 O 10.3846 11.3314 17.4716
194 C 7.66941 10.8001 1.69328
195 C 8.84084 10.6269 0.851162
196 C 6.72131 11.8645 1.30081
197 C 9.15182 11.4941 18.2238
198 C 7.40794 10.002 3.05306
199 C 6.9915 12.7039 0.0992762
200 C 8.20312 12.563 17.8731
201 H 9.52337 9.73301 1.18194
202 H 5.74091 12.0472 1.83017
203 H 6.96556 10.6537 3.81395
204 H 6.68869 9.19677 2.88052
205 H 8.38873 9.50798 3.4658
206 H 6.15657 13.3709 18.3835
207 H 8.42527 13.2563 17.0126
208 H 10.3462 11.3566 16.5035
209 O 9.59045 1.35449 14.6337
210 C 13.3185 0.364552 13.9885
211 C 11.8705 0.514551 13.7454
212 C 13.8778 0.695172 15.3037
213 C 10.9635 1.10055 14.8388
214 C 14.321 18.4955 12.8119
215 C 12.9415 1.08486 16.3835
216 C 11.499 1.25592 16.1586
217 H 11.3265 0.194629 12.819
218 H 14.9944 0.609926 15.472
219 H 14.8311 17.6147 13.1614
220 H 13.7897 18.1577 11.828
221 H 15.0342 0.761457 12.5014
222 H 13.2774 1.25222 17.5324
223 H 10.7221 1.48749 16.9188
224 H 9.11764 1.89355 15.3957
225 O 14.7205 7.43131 4.10485
226 C 16.647 7.337 7.42504
227 C 15.7523 6.91669 6.34723
228 C 16.9519 8.75384 7.63186
229 C 15.2795 7.8503 5.35972
230 C 17.3624 6.27677 8.34331
231 C 16.3942 9.71598 6.66544
232 C 15.5828 9.28556 5.5161
233 H 15.5552 5.86479 6.23212
234 H 17.6869 9.18173 8.4355
235 H 18.3709 6.61764 8.76835
236 H 16.703 6.00253 9.19429
237 H 17.3157 5.38566 7.6585
238 H 16.5135 10.7932 6.85188
239 H 15.2754 10.1562 4.85127
240 H 14.4549 8.2209 3.45494
241 O 11.7137 11.389 1.88525
242 C 12.2858 13.055 5.25806
243 C 12.4466 12.1869 4.07589
244 C 11.0964 13.9396 5.32779
245 C 11.4931 12.2181 2.97998
246 C 13.1735 12.9366 6.51889
247 C 10.1325 14.0168 4.22886
248 C 10.3204 13.0984 3.03736
249 H 13.3065 11.3987 3.98435
250 H 10.9391 14.5683 6.196
251 H 12.5085 12.6 7.43838
252 H 14.1978 12.43 6.39327
253 H 13.3696 13.9766 6.89636
254 H 9.36383 14.8653 4.36164
255 H 9.51569 13.1823 2.27134
256 H 10.8838 11.4163 1.28326
257 O 8.16717 2.54188 16.8047
258 C 4.46523 2.10339 15.7238
259 C 5.95959 1.95019 15.7866
260 C 3.85621 3.20578 16.4763
261 C 6.77067 2.7676 16.7117
262 C 3.66862 1.27023 14.6589
263 C 4.69008 4.03263 17.257
264 C 6.13302 3.81996 17.495
265 H 6.40046 1.15865 15.1432
266 H 2.7179 3.37202 16.3901
267 H 2.52924 1.41173 14.8593
268 H 3.98218 1.41433 13.5683
269 H 3.76675 0.111786 14.7919
270 H 4.22123 4.86586 17.9922
271 H 6.65255 4.40418 18.3712
272 H 8.62396 2.67577 17.6898
273 O 9.18259 1.68528 2.86956
274 C 6.06345 1.05235 5.03213
275 C 7.48089 1.15749 4.67762
276 C 5.03644 1.21527 4.00742
277 C 7.82309 1.64037 3.2958
278 C 5.56693 0.74025 6.61192
279 C 5.40488 1.6102 2.63489
280 C 6.77462 1.75097 2.23537
281 H 8.28306 1.03667 5.50214
282 H 3.92797 1.12352 4.34764
283 H 5.92221 1.57894 7.25161
284 H 4.4402 0.425574 6.78361
285 H 6.22762 18.4155 6.98797
286 H 4.66961 1.8803 1.82727
287 H 6.95292 2.21668 1.13997
288 H 9.85732 1.53355 3.56322
289 O 9.79714 12.2022 14.4728
290 C 12.9832 13.4116 12.6514
291 C 12.0727 13.07 13.7101
292 C 12.4719 13.4012 11.2559
293 C 10.6731 12.7202 13.4525
294 C 14.4966 13.7199 13.0207
295 C 11.075 13.1079 10.8821
296 C 10.2234 12.6622 12.0318
297 H 12.4942 12.9932 14.7368
298 H 13.2059 13.5258 10.4441
299 H 14.4932 14.394 14.0016
300 H 15.0398 12.7862 13.2546
301 H 14.8812 14.1547 12.0546
302 H 10.6357 13.0567 9.84286
303 H 9.13995 12.3086 11.9128
304 H 8.88375 11.8622 14.1538
305 O 13.6006 9.34878 1.99077
306 C 14.8852 10.1837 17.0232
307 C 13.9373 9.99233 18.1531
308 C 16.3149 9.74902 17.2579
309 C 14.4606 9.42953 0.822696
310 C 14.3832 10.7122 15.601
311 C 16.8371 9.15409 18.4859
312 C 15.8818 9.06551 0.995785
313 H 12.8443 10.2185 18.2274
314 H 16.9891 9.87881 16.292
315 H 13.4367 10.2552 15.3588
316 H 14.2831 11.7895 15.4081
317 H 15.0902 10.4844 14.7313
318 H 17.8895 8.78392 18.4998
319 H 16.2484 8.88613 2.07389
320 H 12.8879 10.0437 1.8801
321 O 8.45315 11.9651 5.68887
322 C 9.81302 9.56954 8.34443
323 C 9.77106 10.6427 7.36001
324 C 8.55768 8.76831 8.55388
325 C 8.50368 10.8912 6.61123
326 C 11.1877 9.32538 9.1804
327 C 7.29016 8.95435 7.79554
328 C 7.33503 9.93894 6.77062
329 H 10.7048 11.302 7.25524
330 H 8.71788 7.85773 9.23723
331 H 11.7662 10.3138 9.2861
332 H 10.9732 9.11512 10.22
333 H 11.8861 8.47485 8.81433
334 H 6.36597 8.46913 8.23821
335 H 6.38469 10.2623 6.19986
336 H 9.20384 12.614 5.48558
337 O 0.807552 12.9746 2.43963
338 C 0.573842 13.1266 17.1682
339 C 0.12803 13.0059 18.5476
340 C 2.02286 13.4291 16.8489
341 C 1.1781 13.1608 1.03238
342 C 18.1925 12.8184 15.9923
343 C 3.00931 13.6477 17.8723
344 C 2.61698 13.4273 0.685891
345 H 17.6049 12.7175 0.189101
346 H 2.22401 13.49 15.6964
347 H 18.305 13.4311 15.0574
348 H 18.2782 11.7819 15.6428
349 H 17.1118 12.8986 16.4091
350 H 4.02454 13.9821 17.532
351 H 3.39939 13.4528 1.42875
352 H 18.3919 12.9408 2.4686
353 O 17.4358 15.4531 11.8028
354 C 0.494918 12.0619 12.5234
355 C 18.1118 13.0759 12.0699
356 C 1.82494 12.4521 13.0886
357 C 18.4713 14.5559 12.1114
358 C 18.4733 10.5607 12.5998
359 C 2.20062 13.9347 13.0003
360 C 1.28177 14.9443 12.5267
361 H 17.1373 12.7033 11.6909
362 H 2.47755 11.6466 13.4853
363 H 0.392363 10.0099 13.4505
364 H 17.3564 10.493 12.8458
365 H 0.176395 10.055 11.569
366 H 3.27103 14.1909 13.4546
367 H 1.68115 16.0405 12.6406
368 H 17.7494 16.3237 12.2001
369 O 14.1899 13.3577 1.07599
370 C 12.468 15.2959 16.7907
371 C 12.6153 14.3835 17.9336
372 C 13.6384 15.7852 16.0354
373 C 14.0126 14.1008 18.4394
374 C 10.9943 15.6843 16.3652
375 C 14.9667 15.5093 16.5796
376 C 15.188 14.6558 17.7514
377 H 11.7328 14.1937 0.0792337
378 H 13.4914 16.3955 15.1084
379 H 10.3579 15.7277 17.3481
380 H 10.9081 16.8177 15.9071
381 H 10.3829 15.0592 15.5761
382 H 15.8056 15.9823 15.9986
383 H 16.2605 14.4462 17.9757
384 H 13.4372 12.8414 1.40873
385 O 9.85848 3.03194 0.500904
386 C 11.581 6.35558 18.1143
387 C 10.5859 5.24304 18.3042
388 C 13.0036 6.1344 18.5547
389 C 10.9453 3.98936 0.343491
390 C 11.1435 7.71942 17.4072
391 C 13.3315 4.87734 0.716956
392 C 12.2761 3.89912 0.971276
393 H 9.55198 5.49576 17.9567
394 H 13.7196 6.96662 18.3852
395 H 10.0072 7.60307 16.8978
396 H 11.178 8.53732 18.0995
397 H 11.8826 7.95915 16.5921
398 H 14.4639 4.68732 1.00676
399 H 12.4336 2.84621 1.42189
400 H 9.76995 2.87458 1.4382
401 O 6.19638 14.8929 7.24321
402 C 2.89368 15.7237 5.38638
403 C 4.01588 15.8437 6.32725
404 C 2.75602 14.5493 4.4598
405 C 5.0285 14.7598 6.40039
406 C 1.74436 16.8479 5.48473
407 C 3.7827 13.4389 4.62015
408 C 4.86672 13.5322 5.58029
409 H 4.21016 16.7028 6.97976
410 H 1.82328 14.5913 3.85011
411 H 1.66968 17.4261 4.52001
412 H 0.668376 16.3933 5.65151
413 H 1.91337 17.5717 6.36365
414 H 3.6449 12.5986 3.90731
415 H 5.63022 12.652 5.68648
416 H 6.10329 14.1415 7.85385
417 O 11.585 1.1791 4.75323
418 C 14.0787 0.0566654 2.01393
419 C 13.486 0.820921 3.14384
420 C 13.3381 17.4073 1.63748
421 C 12.2425 0.37645 3.8061
422 C 15.4116 0.488479 1.24824
423 C 12.1005 16.9222 2.28804
424 C 11.5329 17.7465 3.32953
425 H 14.1087 1.71813 3.41435
426 H 13.7642 16.6482 0.838217
427 H 16.2742 0.191632 1.88484
428 H 15.386 0.0255577 0.218273
429 H 15.4254 1.60659 1.01505
430 H 11.4635 16.0822 1.85275
431 H 10.5597 17.4612 3.69525
432 H 12.0331 2.04623 5.02194
433 O 5.47206 16.707 16.2019
434 C 6.35728 16.1274 1.41786
435 C 5.64616 16.2431 0.167622
436 C 7.75697 16.6767 1.3745
437 C 6.24056 16.7366 17.4668
438 C 5.58107 15.7175 2.74702
439 C 8.3687 17.325 0.16033
440 C 7.52239 17.3351 17.4948
441 H 4.56015 15.9447 0.027295
442 H 8.44939 16.6451 2.23221
443 H 5.60958 14.6076 2.89318
444 H 5.98971 16.3147 3.61552
445 H 4.51707 16.0794 2.53905
446 H 9.35249 17.7726 0.156643
447 H 7.99039 17.8866 16.5817
448 H 5.99052 17.1803 15.5196
449 O 6.47399 12.3815 9.14361
450 C 6.13987 12.893 13.0371