begin
comment structure test0
lattice 1.0 0.0 0.0
lattice 0.0 1.0 0.0
lattice 0.0 0.0 1.0
atom    0.0 0.0 0.0 H 0.0 0.0 0.0 0.0 0.0
atom    0.0 0.0 0.0 H 0.0 0.0 0.0 0.0 0.0
energy  0.0
charge  0.0
end
begin
comment structure test1
lattice 1.0 0.0 0.0
lattice 0.0 1.0 0.0
lattice 0.0 0.0 1.0
atom    1.0 0.0 0.0 H 0.5 0.0 0.0 0.0 0.0
atom    1.0 0.0 0.0 H 0.5 0.0 0.0 0.0 0.0
energy  1.0
charge  1.0
end
begin
comment structure test2
lattice 1.0 0.0 0.0
lattice 0.0 1.0 0.0
lattice 0.0 0.0 1.0
atom    2.0 0.0 0.0 H 1.0 0.0 0.0 0.0 0.0
atom    2.0 0.0 0.0 H 1.0 0.0 0.0 0.0 0.0
energy  2.0
charge  2.0
end
