begin
comment file mcresol_npt_hdnnp1_t300_p1.0_201_s22
comment statistics small
comment statistics C, C
comment statistics 28, 250
comment statistics 0.0, 0.01413
lattice  33.51465   0.00000   0.00000
lattice  -0.00435  33.52176   0.00000
lattice   0.00294   0.00211  33.51459
atom  26.65137   9.52537   4.44596 O   0.000 0.0 0.0 0.0 0.0
atom  24.40014   8.60109  10.84342 C   0.000 0.0 0.0 0.0 0.0
atom  25.23767   8.08960   8.42610 C   0.000 0.0 0.0 0.0 0.0
atom  24.09098  11.11851  11.57966 C   0.000 0.0 0.0 0.0 0.0
atom  25.73221  10.14456   6.79988 C   0.000 0.0 0.0 0.0 0.0
atom  24.16979   6.58171  12.75299 C   0.000 0.0 0.0 0.0 0.0
atom  24.36027  13.02790   9.88795 C   0.000 0.0 0.0 0.0 0.0
atom  25.27169  12.59848   7.55528 C   0.000 0.0 0.0 0.0 0.0
atom  25.25411   6.15799   7.75132 H   0.000 0.0 0.0 0.0 0.0
atom  23.37780  11.32398  13.44733 H   0.000 0.0 0.0 0.0 0.0
atom  22.71243   6.80213  14.28926 H   0.000 0.0 0.0 0.0 0.0
atom  23.74705   4.72600  11.84454 H   0.000 0.0 0.0 0.0 0.0
atom  25.91457   6.15816  13.79929 H   0.000 0.0 0.0 0.0 0.0
atom  24.00160  14.93976  10.49257 H   0.000 0.0 0.0 0.0 0.0
atom  25.74034  13.97451   6.20811 H   0.000 0.0 0.0 0.0 0.0
atom  28.03654  10.77342   4.08578 H   0.000 0.0 0.0 0.0 0.0
atom  13.96372   2.51443   5.15946 O   0.000 0.0 0.0 0.0 0.0
atom  15.34010   8.57611   8.35195 C   0.000 0.0 0.0 0.0 0.0
atom  14.27153   6.16209   8.00263 C   0.000 0.0 0.0 0.0 0.0
atom  17.44168   9.20060   6.90442 C   0.000 0.0 0.0 0.0 0.0
atom  15.23835   4.65672   5.96776 C   0.000 0.0 0.0 0.0 0.0
atom  14.20131  10.12451  10.45020 C   0.000 0.0 0.0 0.0 0.0
atom  18.44667   7.57892   5.06118 C   0.000 0.0 0.0 0.0 0.0
atom  17.18704   5.44812   4.38643 C   0.000 0.0 0.0 0.0 0.0
atom  12.77117   5.42102   9.17247 H   0.000 0.0 0.0 0.0 0.0
atom  18.54770  10.96593   7.11684 H   0.000 0.0 0.0 0.0 0.0
atom  15.55432  11.34064  11.54103 H   0.000 0.0 0.0 0.0 0.0
atom  12.98488  11.56476   9.70420 H   0.000 0.0 0.0 0.0 0.0
atom  13.20903   9.05217  11.87279 H   0.000 0.0 0.0 0.0 0.0
atom  20.23783   8.01879   4.13706 H   0.000 0.0 0.0 0.0 0.0
atom  17.91281   4.24582   2.76355 H   0.000 0.0 0.0 0.0 0.0
atom  12.98425   2.01358   6.57054 H   0.000 0.0 0.0 0.0 0.0
atom  31.81089   7.07311  23.96872 O   0.000 0.0 0.0 0.0 0.0
atom  30.50075  11.34563  18.39259 C   0.000 0.0 0.0 0.0 0.0
atom  31.51591  10.44491  20.78529 C   0.000 0.0 0.0 0.0 0.0
atom  28.20624  10.21359  17.72958 C   0.000 0.0 0.0 0.0 0.0
atom  30.53816   8.29953  21.96277 C   0.000 0.0 0.0 0.0 0.0
atom  31.85096  13.01445  16.52983 C   0.000 0.0 0.0 0.0 0.0
atom  27.07996   8.34894  19.03446 C   0.000 0.0 0.0 0.0 0.0
atom  28.16864   7.35738  21.20802 C   0.000 0.0 0.0 0.0 0.0
atom  33.21950  11.03644  21.55063 H   0.000 0.0 0.0 0.0 0.0
atom  27.51460  11.02105  16.05184 H   0.000 0.0 0.0 0.0 0.0
atom  32.05108  15.01259  17.14369 H   0.000 0.0 0.0 0.0 0.0
atom   0.37150  12.35990  16.25490 H   0.000 0.0 0.0 0.0 0.0
atom  30.79025  13.06765  14.80646 H   0.000 0.0 0.0 0.0 0.0
atom  25.29474   7.54730  18.55069 H   0.000 0.0 0.0 0.0 0.0
atom  27.21149   6.04036  22.47886 H   0.000 0.0 0.0 0.0 0.0
atom  33.11934   8.11891  24.60008 H   0.000 0.0 0.0 0.0 0.0
atom  10.13995  10.03365  17.46394 O   0.000 0.0 0.0 0.0 0.0
atom   8.96711   4.09313  14.08184 C   0.000 0.0 0.0 0.0 0.0
atom   8.60855   6.51317  15.11205 C   0.000 0.0 0.0 0.0 0.0
atom  11.27704   2.84612  14.59555 C   0.000 0.0 0.0 0.0 0.0
atom  10.58832   7.69425  16.52993 C   0.000 0.0 0.0 0.0 0.0
atom   6.73430   2.78837  13.01120 C   0.000 0.0 0.0 0.0 0.0
atom  13.21366   4.22785  15.69567 C   0.000 0.0 0.0 0.0 0.0
atom  12.84109   6.56192  16.72168 C   0.000 0.0 0.0 0.0 0.0
atom   6.72121   7.29525  14.71356 H   0.000 0.0 0.0 0.0 0.0
atom  11.27609   0.90705  13.99694 H   0.000 0.0 0.0 0.0 0.0
atom   5.69703   4.02880  11.79663 H   0.000 0.0 0.0 0.0 0.0
atom   7.16038   1.08552  11.93258 H   0.000 0.0 0.0 0.0 0.0
atom   5.34235   2.37465  14.36084 H   0.000 0.0 0.0 0.0 0.0
atom  15.01248   3.48106  15.58312 H   0.000 0.0 0.0 0.0 0.0
atom  14.42846   7.73597  17.56941 H   0.000 0.0 0.0 0.0 0.0
atom  11.66672  10.50261  18.40981 H   0.000 0.0 0.0 0.0 0.0
atom  21.85355  16.30720  14.25880 O   0.000 0.0 0.0 0.0 0.0
atom  25.32516  21.07933  18.02347 C   0.000 0.0 0.0 0.0 0.0
atom  23.59077  20.11292  16.16557 C   0.000 0.0 0.0 0.0 0.0
atom  26.63682  19.44717  19.69265 C   0.000 0.0 0.0 0.0 0.0
atom  23.44583  17.52980  15.86089 C   0.000 0.0 0.0 0.0 0.0
atom  25.24258  23.95568  18.34707 C   0.000 0.0 0.0 0.0 0.0
atom  26.62851  16.86609  19.26481 C   0.000 0.0 0.0 0.0 0.0
atom  24.91075  15.92576  17.48719 C   0.000 0.0 0.0 0.0 0.0
atom  22.80881  21.37942  14.85423 H   0.000 0.0 0.0 0.0 0.0
atom  28.00725  20.18360  21.01527 H   0.000 0.0 0.0 0.0 0.0
atom  26.45881  24.50049  19.93926 H   0.000 0.0 0.0 0.0 0.0
atom  26.17743  24.83497  16.73594 H   0.000 0.0 0.0 0.0 0.0
atom  23.28955  24.41073  18.60159 H   0.000 0.0 0.0 0.0 0.0
atom  27.83283  15.63078  20.50523 H   0.000 0.0 0.0 0.0 0.0
atom  24.68870  13.99408  17.11667 H   0.000 0.0 0.0 0.0 0.0
atom  21.61809  17.48429  12.78475 H   0.000 0.0 0.0 0.0 0.0
atom  26.61396  28.17147   4.18102 O   0.000 0.0 0.0 0.0 0.0
atom  26.02644   1.39192   2.46496 C   0.000 0.0 0.0 0.0 0.0
atom  26.02455  32.28654   2.24224 C   0.000 0.0 0.0 0.0 0.0
atom  27.58017   2.40362   4.23713 C   0.000 0.0 0.0 0.0 0.0
atom  27.19259  30.69747   4.05843 C   0.000 0.0 0.0 0.0 0.0
atom  24.47479   2.80849   0.69572 C   0.000 0.0 0.0 0.0 0.0
atom  28.71118   0.91633   6.06528 C   0.000 0.0 0.0 0.0 0.0
atom  28.63067  31.79596   5.88096 C   0.000 0.0 0.0 0.0 0.0
atom  24.82023  31.38287   0.94932 H   0.000 0.0 0.0 0.0 0.0
atom  27.93034   4.35760   4.27534 H   0.000 0.0 0.0 0.0 0.0
atom  25.20195   3.13683  32.27728 H   0.000 0.0 0.0 0.0 0.0
atom  22.65782   1.86910   0.19087 H   0.000 0.0 0.0 0.0 0.0
atom  24.06623   4.84206   1.47701 H   0.000 0.0 0.0 0.0 0.0
atom  29.93213   2.07071   7.24961 H   0.000 0.0 0.0 0.0 0.0
atom  29.65169  30.51322   7.14301 H   0.000 0.0 0.0 0.0 0.0
atom  25.48258  27.75875   2.86112 H   0.000 0.0 0.0 0.0 0.0
atom   1.46322  16.44874   3.07625 O   0.000 0.0 0.0 0.0 0.0
atom   6.77981  16.75792   7.58553 C   0.000 0.0 0.0 0.0 0.0
atom   5.41656  15.89615   5.48831 C   0.000 0.0 0.0 0.0 0.0
atom   6.38000  19.13745   8.69520 C   0.000 0.0 0.0 0.0 0.0
atom   3.34614  17.32333   4.75899 C   0.000 0.0 0.0 0.0 0.0
atom   8.80291  14.94936   8.54859 C   0.000 0.0 0.0 0.0 0.0
atom   4.43267  20.57628   7.72900 C   0.000 0.0 0.0 0.0 0.0
atom   2.90549  19.69435   5.79269 C   0.000 0.0 0.0 0.0 0.0
atom   5.44014  14.14987   4.57144 H   0.000 0.0 0.0 0.0 0.0
atom   7.34998  20.00899  10.27238 H   0.000 0.0 0.0 0.0 0.0
atom  10.28731  14.76177   7.18780 H   0.000 0.0 0.0 0.0 0.0
atom   9.46477  15.63353  10.33839 H   0.000 0.0 0.0 0.0 0.0
atom   8.02810  13.04708   8.70053 H   0.000 0.0 0.0 0.0 0.0
atom   3.83488  22.24756   8.55923 H   0.000 0.0 0.0 0.0 0.0
atom   1.04888  20.69496   5.39054 H   0.000 0.0 0.0 0.0 0.0
atom   0.99086  17.98192   2.20881 H   0.000 0.0 0.0 0.0 0.0
atom   6.04535  11.91809  19.96099 O   0.000 0.0 0.0 0.0 0.0
atom   2.39789  17.47022  18.10074 C   0.000 0.0 0.0 0.0 0.0
atom   3.40400  15.61254  19.56396 C   0.000 0.0 0.0 0.0 0.0
atom   3.06884  17.67657  15.53276 C   0.000 0.0 0.0 0.0 0.0
atom   4.95477  13.82372  18.47141 C   0.000 0.0 0.0 0.0 0.0
atom   0.80615  19.64578  19.14803 C   0.000 0.0 0.0 0.0 0.0
atom   4.32938  15.64466  14.35561 C   0.000 0.0 0.0 0.0 0.0
atom   5.25894  13.64543  15.86688 C   0.000 0.0 0.0 0.0 0.0
atom   3.02976  15.33889  21.54439 H   0.000 0.0 0.0 0.0 0.0
atom   2.27241  19.08038  14.32630 H   0.000 0.0 0.0 0.0 0.0
atom  33.37502  19.12989  20.94931 H   0.000 0.0 0.0 0.0 0.0
atom   1.89003  21.29060  19.58928 H   0.000 0.0 0.0 0.0 0.0
atom  32.74158  20.31059  17.93581 H   0.000 0.0 0.0 0.0 0.0
atom   4.58370  15.36177  12.36100 H   0.000 0.0 0.0 0.0 0.0
atom   5.93045  11.90265  15.07705 H   0.000 0.0 0.0 0.0 0.0
atom   7.43029  11.13803  18.99175 H   0.000 0.0 0.0 0.0 0.0
atom   3.33452  10.60941  24.02598 O   0.000 0.0 0.0 0.0 0.0
atom   5.68949  14.58689  29.25013 C   0.000 0.0 0.0 0.0 0.0
atom   5.65941  13.06865  27.10132 C   0.000 0.0 0.0 0.0 0.0
atom   3.57238  14.48218  30.85696 C   0.000 0.0 0.0 0.0 0.0
atom   3.50416  11.78889  26.33485 C   0.000 0.0 0.0 0.0 0.0
atom   8.00462  15.82634  30.32538 C   0.000 0.0 0.0 0.0 0.0
atom   1.50640  13.08123  30.16551 C   0.000 0.0 0.0 0.0 0.0
atom   1.44641  11.54466  27.97777 C   0.000 0.0 0.0 0.0 0.0
atom   7.36685  12.84553  25.97825 H   0.000 0.0 0.0 0.0 0.0
atom   3.87260  15.42719  32.68281 H   0.000 0.0 0.0 0.0 0.0
atom   9.30053  15.82682  28.83344 H   0.000 0.0 0.0 0.0 0.0
atom   7.49858  17.64057  31.14174 H   0.000 0.0 0.0 0.0 0.0
atom   8.69236  14.93082  32.03502 H   0.000 0.0 0.0 0.0 0.0
atom  33.40809  13.30798  31.29462 H   0.000 0.0 0.0 0.0 0.0
atom  33.19304  10.42290  27.74137 H   0.000 0.0 0.0 0.0 0.0
atom   4.49900  11.47723  22.98172 H   0.000 0.0 0.0 0.0 0.0
atom  11.47117   0.64740  24.67774 O   0.000 0.0 0.0 0.0 0.0
atom   5.50164   2.72311  22.23508 C   0.000 0.0 0.0 0.0 0.0
atom   7.98969   2.09278  22.40459 C   0.000 0.0 0.0 0.0 0.0
atom   3.78903   2.13295  24.25142 C   0.000 0.0 0.0 0.0 0.0
atom   8.85964   0.98947  24.56531 C   0.000 0.0 0.0 0.0 0.0
atom   4.52395   4.31434  20.02826 C   0.000 0.0 0.0 0.0 0.0
atom   4.73204   0.78861  26.26285 C   0.000 0.0 0.0 0.0 0.0
atom   7.24143   0.41797  26.56520 C   0.000 0.0 0.0 0.0 0.0
atom   9.29222   2.24951  20.84821 H   0.000 0.0 0.0 0.0 0.0
atom   1.84205   2.46658  24.14787 H   0.000 0.0 0.0 0.0 0.0
atom   5.63403   5.79955  19.22116 H   0.000 0.0 0.0 0.0 0.0
atom   3.85164   3.18156  18.41126 H   0.000 0.0 0.0 0.0 0.0
atom   2.90353   5.39131  20.74995 H   0.000 0.0 0.0 0.0 0.0
atom   3.64640   0.12933  27.70263 H   0.000 0.0 0.0 0.0 0.0
atom   8.20081  33.36028  28.17242 H   0.000 0.0 0.0 0.0 0.0
atom  11.97073   0.04467  26.27664 H   0.000 0.0 0.0 0.0 0.0
atom  31.39194  27.41917  21.56272 O   0.000 0.0 0.0 0.0 0.0
atom   2.72825  23.52369  24.80152 C   0.000 0.0 0.0 0.0 0.0
atom   0.31195  24.31567  23.93565 C   0.000 0.0 0.0 0.0 0.0
atom   4.84257  24.93040  24.19152 C   0.000 0.0 0.0 0.0 0.0
atom   0.09726  26.47828  22.44598 C   0.000 0.0 0.0 0.0 0.0
atom   2.87834  21.16191  26.34940 C   0.000 0.0 0.0 0.0 0.0
atom   4.55912  27.22566  22.93391 C   0.000 0.0 0.0 0.0 0.0
atom   2.23849  27.94999  22.09298 C   0.000 0.0 0.0 0.0 0.0
atom  32.08434  23.26858  24.51636 H   0.000 0.0 0.0 0.0 0.0
atom   6.70598  24.16053  24.68436 H   0.000 0.0 0.0 0.0 0.0
atom   1.08410  20.97237  27.58301 H   0.000 0.0 0.0 0.0 0.0
atom   3.31042  19.37480  25.21008 H   0.000 0.0 0.0 0.0 0.0
atom   4.46351  21.11221  27.82697 H   0.000 0.0 0.0 0.0 0.0
atom   6.17914  28.35912  22.24397 H   0.000 0.0 0.0 0.0 0.0
atom   1.95073  29.50448  20.83423 H   0.000 0.0 0.0 0.0 0.0
atom  31.65594  29.08364  21.02283 H   0.000 0.0 0.0 0.0 0.0
atom  16.38786  25.87734  14.91950 O   0.000 0.0 0.0 0.0 0.0
atom  14.97674  22.93164   8.94184 C   0.000 0.0 0.0 0.0 0.0
atom  15.93897  24.61028  10.74290 C   0.000 0.0 0.0 0.0 0.0
atom  13.61929  20.82138   9.75686 C   0.000 0.0 0.0 0.0 0.0
atom  15.18824  24.25331  13.25896 C   0.000 0.0 0.0 0.0 0.0
atom  15.46884  23.24401   6.25010 C   0.000 0.0 0.0 0.0 0.0
atom  12.84577  20.60652  12.21211 C   0.000 0.0 0.0 0.0 0.0
atom  13.68640  22.24718  14.11225 C   0.000 0.0 0.0 0.0 0.0
atom  16.71877  26.38965  10.07198 H   0.000 0.0 0.0 0.0 0.0
atom  13.27880  19.41429   8.37797 H   0.000 0.0 0.0 0.0 0.0
atom  17.49597  23.84060   6.17935 H   0.000 0.0 0.0 0.0 0.0
atom  15.22235  21.68045   4.95254 H   0.000 0.0 0.0 0.0 0.0
atom  14.44905  24.83497   5.38893 H   0.000 0.0 0.0 0.0 0.0
atom  11.44824  19.18809  12.75956 H   0.000 0.0 0.0 0.0 0.0
atom  13.63611  21.76624  16.14992 H   0.000 0.0 0.0 0.0 0.0
atom  15.82733  25.48428  16.59503 H   0.000 0.0 0.0 0.0 0.0
atom  20.12294  14.80258  33.45061 O   0.000 0.0 0.0 0.0 0.0
atom  13.35953  15.69072   1.44709 C   0.000 0.0 0.0 0.0 0.0
atom  15.90146  16.17787   0.94480 C   0.000 0.0 0.0 0.0 0.0
atom  12.59232  13.19061   1.30772 C   0.000 0.0 0.0 0.0 0.0
atom  17.59188  14.23621   0.64610 C   0.000 0.0 0.0 0.0 0.0
atom  11.48933  17.77592   1.82909 C   0.000 0.0 0.0 0.0 0.0
atom  14.23385  11.20982   0.98890 C   0.000 0.0 0.0 0.0 0.0
atom  16.85260  11.67204   0.79775 C   0.000 0.0 0.0 0.0 0.0
atom  16.39470  18.06786   0.99433 H   0.000 0.0 0.0 0.0 0.0
atom  10.58730  12.58697   1.56744 H   0.000 0.0 0.0 0.0 0.0
atom  11.15619  18.73758   0.03982 H   0.000 0.0 0.0 0.0 0.0
atom   9.83644  17.04072   2.65741 H   0.000 0.0 0.0 0.0 0.0
atom  12.29021  19.29694   2.95377 H   0.000 0.0 0.0 0.0 0.0
atom  13.32735   9.37038   1.24931 H   0.000 0.0 0.0 0.0 0.0
atom  18.19101  10.10815   0.38205 H   0.000 0.0 0.0 0.0 0.0
atom  20.94856  13.15830   0.28034 H   0.000 0.0 0.0 0.0 0.0
atom  12.84740   0.08584  31.42444 O   0.000 0.0 0.0 0.0 0.0
atom  19.20000   1.35767  28.49310 C   0.000 0.0 0.0 0.0 0.0
atom  16.98616   0.17796  29.57365 C   0.000 0.0 0.0 0.0 0.0
atom  19.10929   3.99048  28.76484 C   0.000 0.0 0.0 0.0 0.0
atom  14.98233   1.48501  30.80178 C   0.000 0.0 0.0 0.0 0.0
atom  21.23429  33.46006  27.16595 C   0.000 0.0 0.0 0.0 0.0
atom  17.24800   5.34407  29.92287 C   0.000 0.0 0.0 0.0 0.0
atom  15.06698   4.12282  30.79347 C   0.000 0.0 0.0 0.0 0.0
atom  16.68628  31.76743  29.02771 H   0.000 0.0 0.0 0.0 0.0
atom  20.69987   4.82789  27.79730 H   0.000 0.0 0.0 0.0 0.0
atom  21.48978  31.40347  27.79447 H   0.000 0.0 0.0 0.0 0.0
atom  20.60274  33.09458  25.23597 H   0.000 0.0 0.0 0.0 0.0
atom  23.09170   0.73713  27.21054 H   0.000 0.0 0.0 0.0 0.0
atom  17.39920   7.37466  30.02038 H   0.000 0.0 0.0 0.0 0.0
atom  13.55177   5.23728  31.50646 H   0.000 0.0 0.0 0.0 0.0
atom  11.97487   1.12635  32.63746 H   0.000 0.0 0.0 0.0 0.0
atom  29.46348  23.70945   4.09396 O   0.000 0.0 0.0 0.0 0.0
atom  30.36072  20.66208  10.28824 C   0.000 0.0 0.0 0.0 0.0
atom  29.42833  21.02150   7.83634 C   0.000 0.0 0.0 0.0 0.0
atom  31.32316  22.63306  11.65118 C   0.000 0.0 0.0 0.0 0.0
atom  30.07386  23.24514   6.68468 C   0.000 0.0 0.0 0.0 0.0
atom  30.22730  18.02578  11.56352 C   0.000 0.0 0.0 0.0 0.0
atom  31.83716  24.90262  10.48940 C   0.000 0.0 0.0 0.0 0.0
atom  31.16347  25.30494   8.03324 C   0.000 0.0 0.0 0.0 0.0
atom  28.33002  19.64162   6.76635 H   0.000 0.0 0.0 0.0 0.0
atom  31.83036  22.45864  13.51802 H   0.000 0.0 0.0 0.0 0.0
atom  28.21890  17.50707  11.68748 H   0.000 0.0 0.0 0.0 0.0
atom  30.95806  16.39290  10.62240 H   0.000 0.0 0.0 0.0 0.0
atom  30.90080  18.25933  13.48626 H   0.000 0.0 0.0 0.0 0.0
atom  32.88029  26.44199  11.23779 H   0.000 0.0 0.0 0.0 0.0
atom  31.47717  27.09017   7.28013 H   0.000 0.0 0.0 0.0 0.0
atom  28.86084  25.33197   3.90414 H   0.000 0.0 0.0 0.0 0.0
atom  22.99967  17.36592   2.72141 O   0.000 0.0 0.0 0.0 0.0
atom  21.98488  21.26131   8.38594 C   0.000 0.0 0.0 0.0 0.0
atom  22.93107  20.37597   6.10954 C   0.000 0.0 0.0 0.0 0.0
atom  20.24728  19.72723   9.74256 C   0.000 0.0 0.0 0.0 0.0
atom  22.04857  18.15981   5.03312 C   0.000 0.0 0.0 0.0 0.0
atom  22.74266  23.72929   9.52857 C   0.000 0.0 0.0 0.0 0.0
atom  19.16277  17.46281   8.65984 C   0.000 0.0 0.0 0.0 0.0
atom  20.11179  16.76261   6.26117 C   0.000 0.0 0.0 0.0 0.0
atom  24.38540  21.39567   5.00953 H   0.000 0.0 0.0 0.0 0.0
atom  19.62084  20.48501  11.55123 H   0.000 0.0 0.0 0.0 0.0
atom  21.58842  25.29398   9.07050 H   0.000 0.0 0.0 0.0 0.0
atom  22.49927  23.52804  11.60307 H   0.000 0.0 0.0 0.0 0.0
atom  24.71214  24.25615   8.86856 H   0.000 0.0 0.0 0.0 0.0
atom  17.68192  16.53816   9.56228 H   0.000 0.0 0.0 0.0 0.0
atom  19.36194  15.04228   5.45674 H   0.000 0.0 0.0 0.0 0.0
atom  21.60996  16.59824   1.76628 H   0.000 0.0 0.0 0.0 0.0
atom  10.69275   2.92433   1.37042 O   0.000 0.0 0.0 0.0 0.0
atom   5.20844   7.02564   0.57686 C   0.000 0.0 0.0 0.0 0.0
atom   6.86829   4.92128   0.35955 C   0.000 0.0 0.0 0.0 0.0
atom   5.56333   8.69610   2.57978 C   0.000 0.0 0.0 0.0 0.0
atom   8.81262   4.61190   2.08112 C   0.000 0.0 0.0 0.0 0.0
atom   3.28232   7.09190  32.07791 C   0.000 0.0 0.0 0.0 0.0
atom   7.32019   8.21523   4.42043 C   0.000 0.0 0.0 0.0 0.0
atom   9.07426   6.24144   4.08088 C   0.000 0.0 0.0 0.0 0.0
atom   6.76227   3.71566  32.24383 H   0.000 0.0 0.0 0.0 0.0
atom   4.19343  10.35379   2.71847 H   0.000 0.0 0.0 0.0 0.0
atom   3.90742   7.62221  30.29514 H   0.000 0.0 0.0 0.0 0.0
atom   2.45137   5.37669  31.83489 H   0.000 0.0 0.0 0.0 0.0
atom   1.87898   8.54188  32.56225 H   0.000 0.0 0.0 0.0 0.0
atom   7.50459   9.22640   6.21744 H   0.000 0.0 0.0 0.0 0.0
atom  10.48078   5.76104   5.45339 H   0.000 0.0 0.0 0.0 0.0
atom  11.86268   3.17483   2.74838 H   0.000 0.0 0.0 0.0 0.0
atom  11.76351  33.00992   9.07936 O   0.000 0.0 0.0 0.0 0.0
atom   5.94185  31.36624   5.64590 C   0.000 0.0 0.0 0.0 0.0
atom   8.01592  32.68773   6.54503 C   0.000 0.0 0.0 0.0 0.0
atom   5.59057  28.91262   6.47862 C   0.000 0.0 0.0 0.0 0.0
atom   9.62664  31.67710   8.37213 C   0.000 0.0 0.0 0.0 0.0
atom   4.33161  32.75387   3.73552 C   0.000 0.0 0.0 0.0 0.0
atom   7.19910  27.87951   8.21131 C   0.000 0.0 0.0 0.0 0.0
atom   9.24093  29.22046   9.15364 C   0.000 0.0 0.0 0.0 0.0
atom   8.23675   1.01028   5.87238 H   0.000 0.0 0.0 0.0 0.0
atom   3.77023  27.91692   5.98321 H   0.000 0.0 0.0 0.0 0.0
atom   2.53809  31.68920   3.65696 H   0.000 0.0 0.0 0.0 0.0
atom   4.06365   1.19848   4.44475 H   0.000 0.0 0.0 0.0 0.0
atom   4.92816  32.81850   1.74764 H   0.000 0.0 0.0 0.0 0.0
atom   7.22401  25.87772   8.69291 H   0.000 0.0 0.0 0.0 0.0
atom  10.45005  28.40126  10.67102 H   0.000 0.0 0.0 0.0 0.0
atom  12.66398  31.82148  10.11856 H   0.000 0.0 0.0 0.0 0.0
atom  14.01001  11.36355  19.89447 O   0.000 0.0 0.0 0.0 0.0
atom  10.96534   9.36913  25.76396 C   0.000 0.0 0.0 0.0 0.0
atom  11.93774   9.46768  23.28029 C   0.000 0.0 0.0 0.0 0.0
atom  11.92555  11.05983  27.62326 C   0.000 0.0 0.0 0.0 0.0
atom  13.45177  11.43959  22.56900 C   0.000 0.0 0.0 0.0 0.0
atom   9.20484   7.27125  26.59128 C   0.000 0.0 0.0 0.0 0.0
atom  13.47305  13.01878  26.81654 C   0.000 0.0 0.0 0.0 0.0
atom  14.27690  13.13762  24.34081 C   0.000 0.0 0.0 0.0 0.0
atom  11.64179   7.99571  21.88681 H   0.000 0.0 0.0 0.0 0.0
atom  11.12395  11.16288  29.43022 H   0.000 0.0 0.0 0.0 0.0
atom   8.40679   7.82730  28.34551 H   0.000 0.0 0.0 0.0 0.0
atom   7.86045   6.99013  25.16303 H   0.000 0.0 0.0 0.0 0.0
atom   9.99280   5.31914  26.60130 H   0.000 0.0 0.0 0.0 0.0
atom  14.09779  14.59919  27.91050 H   0.000 0.0 0.0 0.0 0.0
atom  15.64432  14.41545  23.93886 H   0.000 0.0 0.0 0.0 0.0
atom  14.74294  12.86371  19.21530 H   0.000 0.0 0.0 0.0 0.0
atom  29.91777  22.06274  32.65806 O   0.000 0.0 0.0 0.0 0.0
atom  29.20232  16.68360  28.26690 C   0.000 0.0 0.0 0.0 0.0
atom  29.64678  19.07036  29.16868 C   0.000 0.0 0.0 0.0 0.0
atom  28.29638  14.83754  29.88904 C   0.000 0.0 0.0 0.0 0.0
atom  29.28357  19.65825  31.73871 C   0.000 0.0 0.0 0.0 0.0
atom  29.83197  16.04523  25.47729 C   0.000 0.0 0.0 0.0 0.0
atom  27.79976  15.39033  32.41712 C   0.000 0.0 0.0 0.0 0.0
atom  28.22684  17.72488  33.34743 C   0.000 0.0 0.0 0.0 0.0
atom  30.47221  20.27695  27.78899 H   0.000 0.0 0.0 0.0 0.0
atom  28.43093  12.86888  29.32742 H   0.000 0.0 0.0 0.0 0.0
atom  28.64277  14.41168  24.90413 H   0.000 0.0 0.0 0.0 0.0
atom  29.50675  17.74978  24.31492 H   0.000 0.0 0.0 0.0 0.0
atom  31.72056  15.18635  25.04095 H   0.000 0.0 0.0 0.0 0.0
atom  26.77477  14.01808   0.21367 H   0.000 0.0 0.0 0.0 0.0
atom  27.93091  18.15337   1.73326 H   0.000 0.0 0.0 0.0 0.0
atom  29.73862  22.02665   0.99997 H   0.000 0.0 0.0 0.0 0.0
atom  15.89779  15.04840  16.58628 O   0.000 0.0 0.0 0.0 0.0
atom  11.51648  18.58415  20.60482 C   0.000 0.0 0.0 0.0 0.0
atom  12.48363  16.96621  18.71080 C   0.000 0.0 0.0 0.0 0.0
atom  13.20437  20.23235  21.72939 C   0.000 0.0 0.0 0.0 0.0
atom  15.06841  17.04108  18.11849 C   0.000 0.0 0.0 0.0 0.0
atom   8.77644  18.44972  21.34049 C   0.000 0.0 0.0 0.0 0.0
atom  15.68493  20.35443  21.07423 C   0.000 0.0 0.0 0.0 0.0
atom  16.64904  18.92353  19.07811 C   0.000 0.0 0.0 0.0 0.0
atom  11.40501  15.57378  17.69645 H   0.000 0.0 0.0 0.0 0.0
atom  12.54625  21.29702  23.38706 H   0.000 0.0 0.0 0.0 0.0
atom   8.54453  16.84148  22.52308 H   0.000 0.0 0.0 0.0 0.0
atom   8.39061  20.12974  22.38891 H   0.000 0.0 0.0 0.0 0.0
atom   7.39414  18.24035  19.89485 H   0.000 0.0 0.0 0.0 0.0
atom  17.04140  21.36694  22.15194 H   0.000 0.0 0.0 0.0 0.0
atom  18.51882  19.22891  18.31613 H   0.000 0.0 0.0 0.0 0.0
atom  17.13645  15.90161  15.45516 H   0.000 0.0 0.0 0.0 0.0
atom   1.51422  20.94383  33.50995 O   0.000 0.0 0.0 0.0 0.0
atom   4.09203  27.33753  32.34588 C   0.000 0.0 0.0 0.0 0.0
atom   2.40301  25.25298  32.30355 C   0.000 0.0 0.0 0.0 0.0
atom   6.39440  27.21017   0.26002 C   0.000 0.0 0.0 0.0 0.0
atom   3.09431  23.05712   0.11003 C   0.000 0.0 0.0 0.0 0.0
atom   3.72977  29.51639  30.60260 C   0.000 0.0 0.0 0.0 0.0
atom   7.06901  24.96064   1.55446 C   0.000 0.0 0.0 0.0 0.0
atom   5.43459  22.91803   1.34419 C   0.000 0.0 0.0 0.0 0.0
atom   0.60855  25.31723  31.28309 H   0.000 0.0 0.0 0.0 0.0
atom   7.39265  28.94947   0.60228 H   0.000 0.0 0.0 0.0 0.0
atom   2.13556  29.20723  29.32779 H   0.000 0.0 0.0 0.0 0.0
atom   3.40457  31.36057  31.76970 H   0.000 0.0 0.0 0.0 0.0
atom   5.40556  29.85975  29.41170 H   0.000 0.0 0.0 0.0 0.0
atom   8.52977  25.01657   3.03445 H   0.000 0.0 0.0 0.0 0.0
atom   6.02575  21.10541   1.98969 H   0.000 0.0 0.0 0.0 0.0
atom   0.17208  21.48883  32.42865 H   0.000 0.0 0.0 0.0 0.0
atom  31.72245  32.72609  21.51434 O   0.000 0.0 0.0 0.0 0.0
atom  33.35707  33.37785  14.71331 C   0.000 0.0 0.0 0.0 0.0
atom  33.42869  32.33680  17.14242 C   0.000 0.0 0.0 0.0 0.0
atom  32.48647   2.38028  14.29806 C   0.000 0.0 0.0 0.0 0.0
atom  32.05467   0.12985  19.13820 C   0.000 0.0 0.0 0.0 0.0
atom   0.79770  32.06979  12.25578 C   0.000 0.0 0.0 0.0 0.0
atom  31.52592   3.74264  16.27383 C   0.000 0.0 0.0 0.0 0.0
atom  31.20713   2.51120  18.57888 C   0.000 0.0 0.0 0.0 0.0
atom   0.74062  30.39606  17.45504 H   0.000 0.0 0.0 0.0 0.0
atom  32.64426   3.30218  12.50027 H   0.000 0.0 0.0 0.0 0.0
atom   1.96265  33.36047  11.07827 H   0.000 0.0 0.0 0.0 0.0
atom   2.08182  30.54667  12.93587 H   0.000 0.0 0.0 0.0 0.0
atom  32.87254  31.68655  10.80978 H   0.000 0.0 0.0 0.0 0.0
atom  30.71580   5.61751  16.01764 H   0.000 0.0 0.0 0.0 0.0
atom  30.73451   3.64471  20.34196 H   0.000 0.0 0.0 0.0 0.0
atom  30.47013   0.25145  22.40346 H   0.000 0.0 0.0 0.0 0.0
atom  22.90008  22.46355  33.02996 O   0.000 0.0 0.0 0.0 0.0
atom  23.15028  19.92244  26.68766 C   0.000 0.0 0.0 0.0 0.0
atom  22.92011  20.05283  29.25428 C   0.000 0.0 0.0 0.0 0.0
atom  23.45226  22.15742  25.19836 C   0.000 0.0 0.0 0.0 0.0
atom  23.12515  22.45165  30.36676 C   0.000 0.0 0.0 0.0 0.0
atom  23.06694  17.43259  25.27868 C   0.000 0.0 0.0 0.0 0.0
atom  23.47134  24.53413  26.41497 C   0.000 0.0 0.0 0.0 0.0
atom  23.26990  24.71459  29.05246 C   0.000 0.0 0.0 0.0 0.0
atom  22.52743  18.49821  30.45690 H   0.000 0.0 0.0 0.0 0.0
atom  23.81055  22.05424  23.21510 H   0.000 0.0 0.0 0.0 0.0
atom  24.73689  16.97908  24.19643 H   0.000 0.0 0.0 0.0 0.0
atom  22.66802  15.80246  26.47960 H   0.000 0.0 0.0 0.0 0.0
atom  21.50338  17.41188  23.95700 H   0.000 0.0 0.0 0.0 0.0
atom  23.64463  26.24357  25.45707 H   0.000 0.0 0.0 0.0 0.0
atom  23.07393  26.43122  30.13981 H   0.000 0.0 0.0 0.0 0.0
atom  22.43369  20.84632   0.07570 H   0.000 0.0 0.0 0.0 0.0
atom  22.82260  10.43169   0.77503 O   0.000 0.0 0.0 0.0 0.0
atom  22.27741   9.71266  27.32185 C   0.000 0.0 0.0 0.0 0.0
atom  21.67251  10.56909  29.83084 C   0.000 0.0 0.0 0.0 0.0
atom  24.50672   8.34256  26.89099 C   0.000 0.0 0.0 0.0 0.0
atom  23.31204   9.84971  31.81297 C   0.000 0.0 0.0 0.0 0.0
atom  20.15280  10.04263  25.47483 C   0.000 0.0 0.0 0.0 0.0
atom  26.18820   7.80865  28.87331 C   0.000 0.0 0.0 0.0 0.0
atom  25.43458   8.53644  31.28234 C   0.000 0.0 0.0 0.0 0.0
atom  19.89466  11.43611  30.18365 H   0.000 0.0 0.0 0.0 0.0
atom  24.70269   7.54222  25.00845 H   0.000 0.0 0.0 0.0 0.0
atom  18.64515   8.72318  25.73675 H   0.000 0.0 0.0 0.0 0.0
atom  19.36913  11.85191  25.54116 H   0.000 0.0 0.0 0.0 0.0
atom  21.07536   9.69031  23.69622 H   0.000 0.0 0.0 0.0 0.0
atom  27.74874   6.72419  28.89410 H   0.000 0.0 0.0 0.0 0.0
atom  26.72148   7.81407  32.68357 H   0.000 0.0 0.0 0.0 0.0
atom  24.27126  10.00098   1.78329 H   0.000 0.0 0.0 0.0 0.0
atom  13.80041  26.92425  19.32226 O   0.000 0.0 0.0 0.0 0.0
atom   7.23979  26.31822  17.31027 C   0.000 0.0 0.0 0.0 0.0
atom   9.62300  25.86166  18.27222 C   0.000 0.0 0.0 0.0 0.0
atom   6.69730  28.81530  16.54523 C   0.000 0.0 0.0 0.0 0.0
atom  11.42681  27.72720  18.55545 C   0.000 0.0 0.0 0.0 0.0
atom   5.28539  24.34081  17.30178 C   0.000 0.0 0.0 0.0 0.0
atom   8.47268  30.68613  16.86358 C   0.000 0.0 0.0 0.0 0.0
atom  10.93244  30.14132  17.82067 C   0.000 0.0 0.0 0.0 0.0
atom  10.00130  23.98403  18.93884 H   0.000 0.0 0.0 0.0 0.0
atom   4.75992  29.33233  15.97246 H   0.000 0.0 0.0 0.0 0.0
atom   3.55072  25.03585  17.94614 H   0.000 0.0 0.0 0.0 0.0
atom   4.97669  23.54259  15.42211 H   0.000 0.0 0.0 0.0 0.0
atom   5.57303  22.69863  18.35742 H   0.000 0.0 0.0 0.0 0.0
atom   8.04105  32.45983  16.16409 H   0.000 0.0 0.0 0.0 0.0
atom  12.33899  31.54482  17.97237 H   0.000 0.0 0.0 0.0 0.0
atom  14.79939  28.39654  19.74405 H   0.000 0.0 0.0 0.0 0.0
atom  22.45032  26.73792   1.74179 O   0.000 0.0 0.0 0.0 0.0
atom  15.70474  28.23251   1.35084 C   0.000 0.0 0.0 0.0 0.0
atom  18.01550  26.99266   1.03501 C   0.000 0.0 0.0 0.0 0.0
atom  15.50350  30.26396   2.98142 C   0.000 0.0 0.0 0.0 0.0
atom  20.16716  27.92354   2.19652 C   0.000 0.0 0.0 0.0 0.0
atom  13.40088  27.17558   0.11606 C   0.000 0.0 0.0 0.0 0.0
atom  17.69283  31.26760   4.03570 C   0.000 0.0 0.0 0.0 0.0
atom  20.07059  29.99619   3.75606 C   0.000 0.0 0.0 0.0 0.0
atom  18.24532  25.54040  33.13427 H   0.000 0.0 0.0 0.0 0.0
atom  13.63479  30.94238   3.44964 H   0.000 0.0 0.0 0.0 0.0
atom  12.21850  26.15967   1.50390 H   0.000 0.0 0.0 0.0 0.0
atom  12.06176  28.51880  32.85648 H   0.000 0.0 0.0 0.0 0.0
atom  14.06737  25.72616  32.16900 H   0.000 0.0 0.0 0.0 0.0
atom  17.76292  33.03714   5.14756 H   0.000 0.0 0.0 0.0 0.0
atom  21.86130  30.40154   4.65910 H   0.000 0.0 0.0 0.0 0.0
atom  22.29045  24.97821   1.12980 H   0.000 0.0 0.0 0.0 0.0
atom  15.54766  30.80499  13.04782 O   0.000 0.0 0.0 0.0 0.0
atom  22.12340  31.37815  10.95593 C   0.000 0.0 0.0 0.0 0.0
atom  19.87463  30.38207  11.99883 C   0.000 0.0 0.0 0.0 0.0
atom  21.84183   0.20664   9.74365 C   0.000 0.0 0.0 0.0 0.0
atom  17.67773  31.85681  12.05088 C   0.000 0.0 0.0 0.0 0.0
atom  24.63957  29.91304  11.32016 C   0.000 0.0 0.0 0.0 0.0
atom  19.60440   1.56558   9.67132 C   0.000 0.0 0.0 0.0 0.0
atom  17.42547   0.58753  10.80124 C   0.000 0.0 0.0 0.0 0.0
atom  19.90675  28.43187  12.75134 H   0.000 0.0 0.0 0.0 0.0
atom  23.43676   0.94997   8.71889 H   0.000 0.0 0.0 0.0 0.0
atom  24.95856  28.54110  10.02067 H   0.000 0.0 0.0 0.0 0.0
atom  26.20899  31.22678  11.03296 H   0.000 0.0 0.0 0.0 0.0
atom  24.62597  29.32571  13.31794 H   0.000 0.0 0.0 0.0 0.0
atom  19.65693   3.35152   8.74117 H   0.000 0.0 0.0 0.0 0.0
atom  15.63393   1.54471  10.56604 H   0.000 0.0 0.0 0.0 0.0
atom  16.02905  29.26071  13.92600 H   0.000 0.0 0.0 0.0 0.0
atom  17.71824  28.09475  24.49198 O   0.000 0.0 0.0 0.0 0.0
atom  14.15857  23.15330  27.88329 C   0.000 0.0 0.0 0.0 0.0
atom  16.15217  24.41772  26.79443 C   0.000 0.0 0.0 0.0 0.0
atom  11.72233  24.25785  27.73986 C   0.000 0.0 0.0 0.0 0.0
atom  15.66882  26.84129  25.58047 C   0.000 0.0 0.0 0.0 0.0
atom  14.46319  20.48350  28.80699 C   0.000 0.0 0.0 0.0 0.0
atom  11.29400  26.54952  26.58731 C   0.000 0.0 0.0 0.0 0.0
atom  13.30464  27.92373  25.59729 C   0.000 0.0 0.0 0.0 0.0
atom  18.11628  23.85949  26.96431 H   0.000 0.0 0.0 0.0 0.0
atom   9.87917  23.31752  28.30111 H   0.000 0.0 0.0 0.0 0.0
atom  14.55238  20.47745  30.78137 H   0.000 0.0 0.0 0.0 0.0
atom  12.77733  19.35080  28.32945 H   0.000 0.0 0.0 0.0 0.0
atom  16.08867  19.57548  28.12328 H   0.000 0.0 0.0 0.0 0.0
atom   9.44120  27.35624  26.56067 H   0.000 0.0 0.0 0.0 0.0
atom  13.12855  29.63072  24.55227 H   0.000 0.0 0.0 0.0 0.0
atom  17.10635  29.83311  24.13936 H   0.000 0.0 0.0 0.0 0.0
atom  15.93358  33.34271  21.87812 O   0.000 0.0 0.0 0.0 0.0
atom  22.28271   0.27759  19.08132 C   0.000 0.0 0.0 0.0 0.0
atom  19.87633  32.88974  19.86027 C   0.000 0.0 0.0 0.0 0.0
atom  22.85076   2.84827  19.37801 C   0.000 0.0 0.0 0.0 0.0
atom  18.10569   0.98054  20.97842 C   0.000 0.0 0.0 0.0 0.0
atom  24.26314  31.98494  18.13914 C   0.000 0.0 0.0 0.0 0.0
atom  21.02868   4.42636  20.47745 C   0.000 0.0 0.0 0.0 0.0
atom  18.66195   3.52404  21.43592 C   0.000 0.0 0.0 0.0 0.0
atom  19.24724  30.92121  19.85346 H   0.000 0.0 0.0 0.0 0.0
atom  24.69815   3.55025  18.92428 H   0.000 0.0 0.0 0.0 0.0
atom  26.11545  32.76161  17.62323 H   0.000 0.0 0.0 0.0 0.0
atom  24.36991  30.45936  19.39464 H   0.000 0.0 0.0 0.0 0.0
atom  23.43903  31.01135  16.64558 H   0.000 0.0 0.0 0.0 0.0
atom  21.47069   6.44431  20.46006 H   0.000 0.0 0.0 0.0 0.0
atom  17.23268   4.64791  22.49606 H   0.000 0.0 0.0 0.0 0.0
atom  15.19893   1.03738  22.88969 H   0.000 0.0 0.0 0.0 0.0
atom  31.27572  11.36927   3.47834 O   0.000 0.0 0.0 0.0 0.0
atom   1.66627   8.52686   8.56377 C   0.000 0.0 0.0 0.0 0.0
atom   0.26513  10.20898   7.14110 C   0.000 0.0 0.0 0.0 0.0
atom   1.60617   6.04905   7.88052 C   0.000 0.0 0.0 0.0 0.0
atom  32.51142   9.41972   5.00751 C   0.000 0.0 0.0 0.0 0.0
atom   2.96672   9.56205  10.81983 C   0.000 0.0 0.0 0.0 0.0
atom   0.29392   5.13932   5.84146 C   0.000 0.0 0.0 0.0 0.0