begin
comment file mcresol_npt_hdnnp1_t300_p1.0_1_s388
comment statistics small
comment statistics O, O, O, O, O
comment statistics 3, 6, 39, 176, 224
comment statistics -0.00205, -0.00089, -0.00164, -0.00567, -0.00151
lattice  35.49498   0.00000   0.00000
lattice  -0.09981  35.29089   0.00000
lattice  -0.10250   0.05268  35.26415
atom  29.34027   5.28392   4.98963 O   0.000 0.0 0.0 0.0 0.0
atom  23.98781   6.08048   9.27325 C   0.000 0.0 0.0 0.0 0.0
atom  25.47256   5.20812   7.21616 C   0.000 0.0 0.0 0.0 0.0
atom  24.55435   8.28242  10.57937 C   0.000 0.0 0.0 0.0 0.0
atom  27.72172   6.30904   6.70344 C   0.000 0.0 0.0 0.0 0.0
atom  21.67667   4.60647  10.10304 C   0.000 0.0 0.0 0.0 0.0
atom  26.79178   9.55379   9.70021 C   0.000 0.0 0.0 0.0 0.0
atom  28.41789   8.60254   7.90629 C   0.000 0.0 0.0 0.0 0.0
atom  24.87484   3.53925   6.28810 H   0.000 0.0 0.0 0.0 0.0
atom  23.53975   9.17526  12.22847 H   0.000 0.0 0.0 0.0 0.0
atom  21.46729   4.26237  12.15640 H   0.000 0.0 0.0 0.0 0.0
atom  19.88483   5.87068   9.81909 H   0.000 0.0 0.0 0.0 0.0
atom  21.71749   2.87161   9.15565 H   0.000 0.0 0.0 0.0 0.0
atom  27.38345  11.18251  10.73860 H   0.000 0.0 0.0 0.0 0.0
atom  30.13546   9.70605   7.46780 H   0.000 0.0 0.0 0.0 0.0
atom  30.57993   6.68016   4.76770 H   0.000 0.0 0.0 0.0 0.0
atom   9.87822  14.74946   4.87939 O   0.000 0.0 0.0 0.0 0.0
atom  13.36651   9.59471   7.49932 C   0.000 0.0 0.0 0.0 0.0
atom  12.15602  11.05649   5.72589 C   0.000 0.0 0.0 0.0 0.0
atom  13.50421  10.31333  10.10512 C   0.000 0.0 0.0 0.0 0.0
atom  10.92345  13.30002   6.67546 C   0.000 0.0 0.0 0.0 0.0
atom  14.79145   7.24865   6.49578 C   0.000 0.0 0.0 0.0 0.0
atom  12.13898  12.42204  10.97523 C   0.000 0.0 0.0 0.0 0.0
atom  10.73861  13.86511   9.23178 C   0.000 0.0 0.0 0.0 0.0
atom  11.63542  10.34665   3.84648 H   0.000 0.0 0.0 0.0 0.0
atom  14.69733   9.24554  11.46145 H   0.000 0.0 0.0 0.0 0.0
atom  16.11058   6.60983   7.95747 H   0.000 0.0 0.0 0.0 0.0
atom  13.34498   5.85396   6.19297 H   0.000 0.0 0.0 0.0 0.0
atom  15.65508   7.74274   4.62185 H   0.000 0.0 0.0 0.0 0.0
atom  12.37464  12.97618  12.88428 H   0.000 0.0 0.0 0.0 0.0
atom   9.30341  15.25822   9.81240 H   0.000 0.0 0.0 0.0 0.0
atom   9.27340  16.29511   5.54937 H   0.000 0.0 0.0 0.0 0.0
atom  33.33647   7.28248  21.85827 O   0.000 0.0 0.0 0.0 0.0
atom  27.86118  10.65180  19.11628 C   0.000 0.0 0.0 0.0 0.0
atom  29.46423   8.65668  19.83381 C   0.000 0.0 0.0 0.0 0.0
atom  28.40353  13.01177  20.00918 C   0.000 0.0 0.0 0.0 0.0
atom  31.59263   9.24753  21.28550 C   0.000 0.0 0.0 0.0 0.0
atom  25.61354   9.90689  17.63817 C   0.000 0.0 0.0 0.0 0.0
atom  30.49716  13.60574  21.45368 C   0.000 0.0 0.0 0.0 0.0
atom  32.26934  11.69474  22.13247 C   0.000 0.0 0.0 0.0 0.0
atom  29.40848   6.81040  19.03238 H   0.000 0.0 0.0 0.0 0.0
atom  27.25250  14.68385  19.54506 H   0.000 0.0 0.0 0.0 0.0
atom  24.38389  11.40769  17.15830 H   0.000 0.0 0.0 0.0 0.0
atom  26.11337   8.68461  16.09633 H   0.000 0.0 0.0 0.0 0.0
atom  24.44928   8.65687  18.88553 H   0.000 0.0 0.0 0.0 0.0
atom  30.96203  15.64882  21.96977 H   0.000 0.0 0.0 0.0 0.0
atom  33.87788  12.16498  23.15311 H   0.000 0.0 0.0 0.0 0.0
atom  34.55667   7.78633  23.11683 H   0.000 0.0 0.0 0.0 0.0
atom   7.42515   6.78771  15.97232 O   0.000 0.0 0.0 0.0 0.0
atom   2.89357   4.90930  11.09137 C   0.000 0.0 0.0 0.0 0.0
atom   4.12711   6.35228  13.00287 C   0.000 0.0 0.0 0.0 0.0
atom   4.34584   2.97120   9.89984 C   0.000 0.0 0.0 0.0 0.0
atom   6.56980   5.53586  13.82176 C   0.000 0.0 0.0 0.0 0.0
atom   0.39387   5.60850  10.25080 C   0.000 0.0 0.0 0.0 0.0
atom   6.89521   2.54317  10.47041 C   0.000 0.0 0.0 0.0 0.0
atom   8.04659   3.74901  12.42561 C   0.000 0.0 0.0 0.0 0.0
atom   2.98786   7.96699  13.84816 H   0.000 0.0 0.0 0.0 0.0
atom   3.48161   1.96756   8.36493 H   0.000 0.0 0.0 0.0 0.0
atom   0.39422   6.15771   8.21781 H   0.000 0.0 0.0 0.0 0.0
atom  34.59276   3.90962  10.15580 H   0.000 0.0 0.0 0.0 0.0
atom  34.89039   7.03700  11.30039 H   0.000 0.0 0.0 0.0 0.0
atom   8.00222   1.48222   9.10718 H   0.000 0.0 0.0 0.0 0.0
atom  10.03592   3.48554  13.02841 H   0.000 0.0 0.0 0.0 0.0
atom   8.56908   5.73987  17.09641 H   0.000 0.0 0.0 0.0 0.0
atom  23.70926  17.76428  22.73133 O   0.000 0.0 0.0 0.0 0.0
atom  27.68883  23.43128  21.72505 C   0.000 0.0 0.0 0.0 0.0
atom  25.87640  21.55516  21.29551 C   0.000 0.0 0.0 0.0 0.0
atom  29.20742  23.26763  23.85420 C   0.000 0.0 0.0 0.0 0.0
atom  25.58387  19.55111  23.03519 C   0.000 0.0 0.0 0.0 0.0
atom  28.02539  25.48730  19.76257 C   0.000 0.0 0.0 0.0 0.0
atom  28.97649  21.16493  25.42721 C   0.000 0.0 0.0 0.0 0.0
atom  27.24891  19.18393  25.07119 C   0.000 0.0 0.0 0.0 0.0
atom  24.46175  21.60864  19.79261 H   0.000 0.0 0.0 0.0 0.0
atom  30.50906  24.65696  24.38767 H   0.000 0.0 0.0 0.0 0.0
atom  29.85333  26.28231  19.78713 H   0.000 0.0 0.0 0.0 0.0
atom  27.67296  24.61614  18.03453 H   0.000 0.0 0.0 0.0 0.0
atom  26.79367  27.19788  20.11424 H   0.000 0.0 0.0 0.0 0.0
atom  30.28891  21.06345  27.05993 H   0.000 0.0 0.0 0.0 0.0
atom  26.95638  17.55712  26.42291 H   0.000 0.0 0.0 0.0 0.0
atom  22.51684  18.43793  21.53589 H   0.000 0.0 0.0 0.0 0.0
atom  29.96595  24.60726   6.04601 O   0.000 0.0 0.0 0.0 0.0
atom  33.10366  30.94238   6.44306 C   0.000 0.0 0.0 0.0 0.0
atom  31.34753  29.00125   5.80658 C   0.000 0.0 0.0 0.0 0.0
atom  -0.02498  30.34088   7.67200 C   0.000 0.0 0.0 0.0 0.0
atom  31.72529  26.49642   6.52350 C   0.000 0.0 0.0 0.0 0.0
atom  32.35929  33.56021   5.95793 C   0.000 0.0 0.0 0.0 0.0
atom   0.21095  27.85891   8.44267 C   0.000 0.0 0.0 0.0 0.0
atom  34.08726  25.83237   7.59730 C   0.000 0.0 0.0 0.0 0.0
atom  29.48993  29.42870   4.84690 H   0.000 0.0 0.0 0.0 0.0
atom   1.20783  31.88308   8.27995 H   0.000 0.0 0.0 0.0 0.0
atom  30.96619  34.19686   7.48870 H   0.000 0.0 0.0 0.0 0.0
atom  34.00562  34.86167   6.30917 H   0.000 0.0 0.0 0.0 0.0
atom  31.59717  33.91303   4.04086 H   0.000 0.0 0.0 0.0 0.0
atom   1.89014  27.27423   9.40241 H   0.000 0.0 0.0 0.0 0.0
atom  34.67610  23.86233   8.25763 H   0.000 0.0 0.0 0.0 0.0
atom  28.51521  25.09726   5.08833 H   0.000 0.0 0.0 0.0 0.0
atom   7.66804  19.66940   6.22336 O   0.000 0.0 0.0 0.0 0.0
atom  12.67526  21.64473  10.52825 C   0.000 0.0 0.0 0.0 0.0
atom  11.41177  20.84916   8.37529 C   0.000 0.0 0.0 0.0 0.0
atom  11.22817  22.55067  12.52664 C   0.000 0.0 0.0 0.0 0.0
atom   8.81223  20.82762   8.22382 C   0.000 0.0 0.0 0.0 0.0
atom  15.43904  21.31044  10.75745 C   0.000 0.0 0.0 0.0 0.0
atom   8.55606  22.62645  12.49202 C   0.000 0.0 0.0 0.0 0.0
atom   7.35459  21.90627  10.21741 C   0.000 0.0 0.0 0.0 0.0
atom  12.38721  19.78014   7.05057 H   0.000 0.0 0.0 0.0 0.0
atom  12.19221  22.96320  14.37362 H   0.000 0.0 0.0 0.0 0.0
atom  16.29465  22.84395  11.94477 H   0.000 0.0 0.0 0.0 0.0
atom  15.98364  19.56868  11.74176 H   0.000 0.0 0.0 0.0 0.0
atom  16.27513  21.07460   8.82474 H   0.000 0.0 0.0 0.0 0.0
atom   7.45021  23.34964  14.12733 H   0.000 0.0 0.0 0.0 0.0
atom   5.35076  21.78779  10.04503 H   0.000 0.0 0.0 0.0 0.0
atom   6.03779  20.20703   5.83547 H   0.000 0.0 0.0 0.0 0.0
atom   5.49202  10.34092  19.48119 O   0.000 0.0 0.0 0.0 0.0
atom   3.27257  16.82680  18.89358 C   0.000 0.0 0.0 0.0 0.0
atom   3.68769  14.35820  19.78619 C   0.000 0.0 0.0 0.0 0.0
atom   4.49825  17.70515  16.68615 C   0.000 0.0 0.0 0.0 0.0
atom   5.08990  12.65349  18.34930 C   0.000 0.0 0.0 0.0 0.0
atom   1.71759  18.64546  20.48501 C   0.000 0.0 0.0 0.0 0.0
atom   5.92841  15.94562  15.27144 C   0.000 0.0 0.0 0.0 0.0
atom   6.22829  13.39670  16.01093 C   0.000 0.0 0.0 0.0 0.0
atom   2.96717  14.20210  21.70048 H   0.000 0.0 0.0 0.0 0.0
atom   4.62628  19.64484  16.40855 H   0.000 0.0 0.0 0.0 0.0
atom   0.06125  17.65479  21.42496 H   0.000 0.0 0.0 0.0 0.0
atom   2.83667  19.02671  22.09165 H   0.000 0.0 0.0 0.0 0.0
atom   1.12456  20.36671  19.44056 H   0.000 0.0 0.0 0.0 0.0
atom   6.83960  16.57547  13.55725 H   0.000 0.0 0.0 0.0 0.0
atom   7.29480  12.06439  14.90113 H   0.000 0.0 0.0 0.0 0.0
atom   6.00001   9.11256  18.16418 H   0.000 0.0 0.0 0.0 0.0
atom   3.95170   8.90244  25.55080 O   0.000 0.0 0.0 0.0 0.0
atom   6.56992  14.34113  29.24162 C   0.000 0.0 0.0 0.0 0.0
atom   6.14172  12.61861  27.21735 C   0.000 0.0 0.0 0.0 0.0
atom   5.31194  13.99677  31.47868 C   0.000 0.0 0.0 0.0 0.0
atom   4.35227  10.67215  27.43996 C   0.000 0.0 0.0 0.0 0.0
atom   8.51148  16.29390  28.90336 C   0.000 0.0 0.0 0.0 0.0
atom   3.59456  12.08276  31.73663 C   0.000 0.0 0.0 0.0 0.0
atom   3.00026  10.48252  29.77434 C   0.000 0.0 0.0 0.0 0.0
atom   7.13103  13.06525  25.35427 H   0.000 0.0 0.0 0.0 0.0
atom   5.63798  15.31959  33.03865 H   0.000 0.0 0.0 0.0 0.0
atom  10.30271  15.42387  28.63200 H   0.000 0.0 0.0 0.0 0.0
atom   7.97226  17.63509  27.33016 H   0.000 0.0 0.0 0.0 0.0
atom   8.47329  17.67442  30.50226 H   0.000 0.0 0.0 0.0 0.0
atom   2.58845  11.95749  33.49558 H   0.000 0.0 0.0 0.0 0.0
atom   1.71135   9.01758  30.20954 H   0.000 0.0 0.0 0.0 0.0
atom   4.91901   9.12655  23.98233 H   0.000 0.0 0.0 0.0 0.0
atom  12.03990   0.33719  24.41224 O   0.000 0.0 0.0 0.0 0.0
atom   6.00358  35.19086  27.79579 C   0.000 0.0 0.0 0.0 0.0
atom   7.77156   0.54946  25.89889 C   0.000 0.0 0.0 0.0 0.0
atom   6.71473  33.67208  29.82989 C   0.000 0.0 0.0 0.0 0.0
atom  10.17657  35.03741  26.14984 C   0.000 0.0 0.0 0.0 0.0
atom   3.36165   0.89960  27.47019 C   0.000 0.0 0.0 0.0 0.0
atom   9.19800  32.67242  29.97767 C   0.000 0.0 0.0 0.0 0.0
atom  10.89741  33.40658  28.09607 C   0.000 0.0 0.0 0.0 0.0
atom   7.13876   1.95103  24.44701 H   0.000 0.0 0.0 0.0 0.0
atom   5.15204  32.99008  31.01324 H   0.000 0.0 0.0 0.0 0.0
atom   2.01097   0.26808  28.86859 H   0.000 0.0 0.0 0.0 0.0
atom   3.44002   3.01666  27.64632 H   0.000 0.0 0.0 0.0 0.0
atom   2.44493   0.35063  25.55439 H   0.000 0.0 0.0 0.0 0.0
atom   9.65263  31.32486  31.44221 H   0.000 0.0 0.0 0.0 0.0
atom  12.94801  32.80149  28.10703 H   0.000 0.0 0.0 0.0 0.0
atom  13.81828   0.28890  25.01960 H   0.000 0.0 0.0 0.0 0.0
atom  32.96646  28.90109  25.43552 O   0.000 0.0 0.0 0.0 0.0
atom   2.16801  24.10289  26.75833 C   0.000 0.0 0.0 0.0 0.0
atom  -0.01147  25.62053  26.91953 C   0.000 0.0 0.0 0.0 0.0
atom   4.07756  24.67264  25.04473 C   0.000 0.0 0.0 0.0 0.0
atom  35.23735  27.65142  25.23465 C   0.000 0.0 0.0 0.0 0.0
atom   2.42546  21.72996  28.33285 C   0.000 0.0 0.0 0.0 0.0
atom   3.81647  26.70315  23.47777 C   0.000 0.0 0.0 0.0 0.0
atom   1.61799  28.21210  23.40161 C   0.000 0.0 0.0 0.0 0.0
atom  33.91435  25.35502  28.16164 H   0.000 0.0 0.0 0.0 0.0
atom   5.92197  23.50385  24.94533 H   0.000 0.0 0.0 0.0 0.0
atom   0.58484  21.31913  29.28395 H   0.000 0.0 0.0 0.0 0.0
atom   2.91715  20.05434  27.34415 H   0.000 0.0 0.0 0.0 0.0
atom   3.77881  22.34091  29.78001 H   0.000 0.0 0.0 0.0 0.0
atom   5.21838  26.94806  21.93821 H   0.000 0.0 0.0 0.0 0.0
atom   1.10513  29.66719  21.94388 H   0.000 0.0 0.0 0.0 0.0
atom  32.64710  30.19518  24.25898 H   0.000 0.0 0.0 0.0 0.0
atom  18.47213  25.42740  18.25991 O   0.000 0.0 0.0 0.0 0.0
atom  23.55808  26.41591  13.65202 C   0.000 0.0 0.0 0.0 0.0
atom  21.67969  25.23937  15.12837 C   0.000 0.0 0.0 0.0 0.0
atom  24.37501  28.88182  14.32838 C   0.000 0.0 0.0 0.0 0.0
atom  20.65716  26.56445  17.16862 C   0.000 0.0 0.0 0.0 0.0
atom  24.77544  25.25298  11.44208 C   0.000 0.0 0.0 0.0 0.0
atom  23.41786  30.19215  16.40798 C   0.000 0.0 0.0 0.0 0.0
atom  21.58426  28.99955  17.91965 C   0.000 0.0 0.0 0.0 0.0
atom  20.84897  23.47720  14.70704 H   0.000 0.0 0.0 0.0 0.0
atom  25.67004  29.90397  12.83988 H   0.000 0.0 0.0 0.0 0.0
atom  23.82056  25.93989   9.71690 H   0.000 0.0 0.0 0.0 0.0
atom  26.74605  25.75243  11.28956 H   0.000 0.0 0.0 0.0 0.0
atom  24.35744  23.24250  11.39212 H   0.000 0.0 0.0 0.0 0.0
atom  24.06982  32.02046  16.65064 H   0.000 0.0 0.0 0.0 0.0
atom  20.62220  29.80117  19.57718 H   0.000 0.0 0.0 0.0 0.0
atom  17.75623  26.80236  19.15426 H   0.000 0.0 0.0 0.0 0.0
atom  19.97705  18.65256  34.73543 O   0.000 0.0 0.0 0.0 0.0
atom  14.47840  22.28592   1.21592 C   0.000 0.0 0.0 0.0 0.0
atom  17.05924  21.49677   0.83133 C   0.000 0.0 0.0 0.0 0.0
atom  12.61936  20.52205   0.72213 C   0.000 0.0 0.0 0.0 0.0
atom  17.55331  19.16333  35.02759 C   0.000 0.0 0.0 0.0 0.0
atom  13.78215  24.89166   2.09922 C   0.000 0.0 0.0 0.0 0.0
atom  13.18141  18.22461  34.99376 C   0.000 0.0 0.0 0.0 0.0
atom  15.62713  17.45166  34.46388 C   0.000 0.0 0.0 0.0 0.0
atom  18.48180  22.81920   1.66608 H   0.000 0.0 0.0 0.0 0.0
atom  10.55726  20.77622   1.00710 H   0.000 0.0 0.0 0.0 0.0
atom  15.04668  25.87035   3.35128 H   0.000 0.0 0.0 0.0 0.0
atom  13.59429  25.91287   0.25882 H   0.000 0.0 0.0 0.0 0.0
atom  11.95312  24.76165   3.05198 H   0.000 0.0 0.0 0.0 0.0
atom  11.71645  16.97241  34.61770 H   0.000 0.0 0.0 0.0 0.0
atom  15.91435  15.58514  33.81778 H   0.000 0.0 0.0 0.0 0.0
atom  20.33553  16.93077  34.06609 H   0.000 0.0 0.0 0.0 0.0
atom  17.49820   0.44560  26.42933 O   0.000 0.0 0.0 0.0 0.0
atom  22.67993  31.48208  25.86997 C   0.000 0.0 0.0 0.0 0.0
atom  20.19588  32.28446  26.11129 C   0.000 0.0 0.0 0.0 0.0
atom  24.71138  33.18737  25.58425 C   0.000 0.0 0.0 0.0 0.0
atom  19.75066  34.86016  25.98184 C   0.000 0.0 0.0 0.0 0.0
atom  23.06241  28.72781  26.18083 C   0.000 0.0 0.0 0.0 0.0
atom  24.40959   0.50150  25.42305 C   0.000 0.0 0.0 0.0 0.0
atom  21.82955   1.46097  25.65587 C   0.000 0.0 0.0 0.0 0.0
atom  18.74858  30.84902  26.41913 H   0.000 0.0 0.0 0.0 0.0
atom  26.61131  32.58266  25.17191 H   0.000 0.0 0.0 0.0 0.0
atom  22.34960  27.97513  27.97380 H   0.000 0.0 0.0 0.0 0.0
atom  22.39174  27.59170  24.63598 H   0.000 0.0 0.0 0.0 0.0
atom  25.01563  28.26558  26.20540 H   0.000 0.0 0.0 0.0 0.0
atom  25.93271   1.85609  25.02867 H   0.000 0.0 0.0 0.0 0.0
atom  21.28417   3.41309  25.10237 H   0.000 0.0 0.0 0.0 0.0
atom  17.84089   2.17063  26.71676 H   0.000 0.0 0.0 0.0 0.0
atom  31.12133  19.84099   8.46310 O   0.000 0.0 0.0 0.0 0.0
atom  32.38726  15.36030  13.53392 C   0.000 0.0 0.0 0.0 0.0
atom  32.09964  16.50863  11.14203 C   0.000 0.0 0.0 0.0 0.0
atom  32.29202  16.98643  15.64417 C   0.000 0.0 0.0 0.0 0.0
atom  31.45147  19.05373  10.98229 C   0.000 0.0 0.0 0.0 0.0
atom  32.93169  12.58047  13.84504 C   0.000 0.0 0.0 0.0 0.0
atom  31.60586  19.50122  15.45456 C   0.000 0.0 0.0 0.0 0.0
atom  31.16971  20.60822  13.07084 C   0.000 0.0 0.0 0.0 0.0
atom  32.51009  15.17919   9.62128 H   0.000 0.0 0.0 0.0 0.0
atom  32.81358  16.16523  17.46383 H   0.000 0.0 0.0 0.0 0.0
atom  33.51278  11.45219  12.26410 H   0.000 0.0 0.0 0.0 0.0
atom  34.56177  12.37398  15.19716 H   0.000 0.0 0.0 0.0 0.0
atom  31.41953  11.53886  14.78163 H   0.000 0.0 0.0 0.0 0.0
atom  31.33242  20.73105  17.18411 H   0.000 0.0 0.0 0.0 0.0
atom  30.32217  22.48869  12.86724 H   0.000 0.0 0.0 0.0 0.0
atom  30.24355  21.44008   8.36465 H   0.000 0.0 0.0 0.0 0.0
atom  22.40478  19.03238   4.60341 O   0.000 0.0 0.0 0.0 0.0
atom  22.66103  16.56895  11.08648 C   0.000 0.0 0.0 0.0 0.0
atom  23.26971  18.13060   8.92958 C   0.000 0.0 0.0 0.0 0.0
atom  21.24033  14.38614  11.03602 C   0.000 0.0 0.0 0.0 0.0
atom  22.04347  17.46039   6.66072 C   0.000 0.0 0.0 0.0 0.0
atom  23.97477  17.13806  13.57368 C   0.000 0.0 0.0 0.0 0.0
atom  20.23216  13.73838   8.62889 C   0.000 0.0 0.0 0.0 0.0
atom  20.58762  15.23701   6.45319 C   0.000 0.0 0.0 0.0 0.0
atom  24.58836  19.75236   9.07180 H   0.000 0.0 0.0 0.0 0.0
atom  21.22975  13.09505  12.56881 H   0.000 0.0 0.0 0.0 0.0
atom  25.33537  15.71321  14.14309 H   0.000 0.0 0.0 0.0 0.0
atom  25.19194  18.85287  13.35165 H   0.000 0.0 0.0 0.0 0.0
atom  22.68163  17.45941  15.23355 H   0.000 0.0 0.0 0.0 0.0
atom  19.20680  11.90142   8.37863 H   0.000 0.0 0.0 0.0 0.0
atom  19.77712  14.79249   4.64727 H   0.000 0.0 0.0 0.0 0.0
atom  21.21293  18.69946   3.37783 H   0.000 0.0 0.0 0.0 0.0
atom  16.85987   5.50232  30.23921 O   0.000 0.0 0.0 0.0 0.0
atom  10.61455   6.71599  33.06510 C   0.000 0.0 0.0 0.0 0.0
atom  12.60102   5.57838  31.71395 C   0.000 0.0 0.0 0.0 0.0
atom  11.10135   8.99619  34.46275 C   0.000 0.0 0.0 0.0 0.0
atom  14.94989   6.81653  31.46167 C   0.000 0.0 0.0 0.0 0.0
atom   7.96246   5.49362  33.50692 C   0.000 0.0 0.0 0.0 0.0
atom  13.50170  10.06090  34.24694 C   0.000 0.0 0.0 0.0 0.0
atom  15.33243   9.16683  32.66354 C   0.000 0.0 0.0 0.0 0.0
atom  12.08123   3.72864  30.92688 H   0.000 0.0 0.0 0.0 0.0
atom   9.88487   9.43312   0.48372 H   0.000 0.0 0.0 0.0 0.0
atom   8.16753   4.87820   0.16799 H   0.000 0.0 0.0 0.0 0.0
atom   6.65371   6.90538  33.09402 H   0.000 0.0 0.0 0.0 0.0
atom   7.70409   3.80213  32.38802 H   0.000 0.0 0.0 0.0 0.0
atom  14.14689  11.48145   0.27283 H   0.000 0.0 0.0 0.0 0.0
atom  16.95776  10.26541  32.27766 H   0.000 0.0 0.0 0.0 0.0
atom  18.15381   6.58564  29.70517 H   0.000 0.0 0.0 0.0 0.0
atom  12.08221  34.48750   6.31779 O   0.000 0.0 0.0 0.0 0.0
atom   5.87930  33.24501   3.37241 C   0.000 0.0 0.0 0.0 0.0
atom   8.21385  34.37034   3.99481 C   0.000 0.0 0.0 0.0 0.0
atom   5.59308  30.68632   3.74368 C   0.000 0.0 0.0 0.0 0.0
atom  10.07730  33.03222   5.44441 C   0.000 0.0 0.0 0.0 0.0
atom   3.79404  34.48051   1.87404 C   0.000 0.0 0.0 0.0 0.0
atom   7.51654  29.32836   4.84569 C   0.000 0.0 0.0 0.0 0.0
atom   9.65365  30.41930   5.96522 C   0.000 0.0 0.0 0.0 0.0
atom   9.03091   0.88593   3.25655 H   0.000 0.0 0.0 0.0 0.0
atom   3.81351  29.65698   3.11179 H   0.000 0.0 0.0 0.0 0.0
atom   1.86936  33.37294   1.94753 H   0.000 0.0 0.0 0.0 0.0
atom   3.79221   1.22943   2.42801 H   0.000 0.0 0.0 0.0 0.0
atom   3.97780  34.61581  35.01927 H   0.000 0.0 0.0 0.0 0.0
atom   7.40060  27.37892   5.29069 H   0.000 0.0 0.0 0.0 0.0
atom  11.21324  29.50373   6.94467 H   0.000 0.0 0.0 0.0 0.0
atom  13.54140  33.42793   6.94486 H   0.000 0.0 0.0 0.0 0.0
atom  19.11345  14.63338  26.46297 O   0.000 0.0 0.0 0.0 0.0
atom  14.62474   9.42767  24.78773 C   0.000 0.0 0.0 0.0 0.0
atom  15.62454  11.65661  25.82405 C   0.000 0.0 0.0 0.0 0.0
atom  16.16445   7.78439  23.38385 C   0.000 0.0 0.0 0.0 0.0
atom  18.18385  12.30261  25.57404 C   0.000 0.0 0.0 0.0 0.0
atom  11.88791   8.74811  24.89261 C   0.000 0.0 0.0 0.0 0.0
atom  18.69502   8.52096  23.10757 C   0.000 0.0 0.0 0.0 0.0
atom  19.74046  10.73476  24.22742 C   0.000 0.0 0.0 0.0 0.0
atom  14.28259  12.96471  26.64117 H   0.000 0.0 0.0 0.0 0.0
atom  15.30158   6.29644  22.39685 H   0.000 0.0 0.0 0.0 0.0
atom  11.78225   6.55790  25.20366 H   0.000 0.0 0.0 0.0 0.0
atom  11.16976   9.65021  26.57219 H   0.000 0.0 0.0 0.0 0.0
atom  10.73818   9.37701  23.25951 H   0.000 0.0 0.0 0.0 0.0
atom  19.96080   7.46910  21.81500 H   0.000 0.0 0.0 0.0 0.0
atom  21.59541  11.32766  23.79108 H   0.000 0.0 0.0 0.0 0.0
atom  20.78037  14.64765  25.60711 H   0.000 0.0 0.0 0.0 0.0
atom  33.57363  17.82316   3.16639 O   0.000 0.0 0.0 0.0 0.0
atom  32.39709  16.28139  31.77971 C   0.000 0.0 0.0 0.0 0.0
atom  33.71215  16.98749  34.09104 C   0.000 0.0 0.0 0.0 0.0
atom  29.84388  15.78483  31.76252 C   0.000 0.0 0.0 0.0 0.0
atom  32.24043  17.22548   0.98343 C   0.000 0.0 0.0 0.0 0.0
atom  33.69438  16.18815  29.21573 C   0.000 0.0 0.0 0.0 0.0
atom  28.39540  16.21222  33.95290 C   0.000 0.0 0.0 0.0 0.0
atom  29.64243  16.88417   0.88715 C   0.000 0.0 0.0 0.0 0.0
atom   0.25522  17.40648  34.38243 H   0.000 0.0 0.0 0.0 0.0
atom  29.09649  14.82898  30.09748 H   0.000 0.0 0.0 0.0 0.0
atom  32.96627  14.53432  28.16051 H   0.000 0.0 0.0 0.0 0.0
atom  33.25918  17.96009  28.05790 H   0.000 0.0 0.0 0.0 0.0
atom   0.23750  15.97816  29.34272 H   0.000 0.0 0.0 0.0 0.0
atom  26.38870  15.87873  33.78622 H   0.000 0.0 0.0 0.0 0.0
atom  28.52882  16.94531   2.69874 H   0.000 0.0 0.0 0.0 0.0
atom  32.54978  18.41757   4.56085 H   0.000 0.0 0.0 0.0 0.0
atom  18.41805  18.83403  18.37727 O   0.000 0.0 0.0 0.0 0.0
atom  11.86984  19.13102  20.55739 C   0.000 0.0 0.0 0.0 0.0
atom  14.41721  19.84118  20.06946 C   0.000 0.0 0.0 0.0 0.0
atom  11.08426  16.67872  19.79677 C   0.000 0.0 0.0 0.0 0.0
atom  15.99483  18.19617  18.91748 C   0.000 0.0 0.0 0.0 0.0
atom  10.03356  20.86258  21.81594 C   0.000 0.0 0.0 0.0 0.0
atom  13.03800  14.92122  18.98362 C   0.000 0.0 0.0 0.0 0.0
atom  15.49815  15.62815  18.45794 C   0.000 0.0 0.0 0.0 0.0
atom  15.20379  21.65173  20.55701 H   0.000 0.0 0.0 0.0 0.0
atom   9.20629  15.87716  19.96477 H   0.000 0.0 0.0 0.0 0.0
atom   8.22930  20.23802  21.11958 H   0.000 0.0 0.0 0.0 0.0
atom  10.21076  20.55266  23.83587 H   0.000 0.0 0.0 0.0 0.0
atom  10.19566  22.87835  21.27945 H   0.000 0.0 0.0 0.0 0.0
atom  12.50957  12.83058  18.78091 H   0.000 0.0 0.0 0.0 0.0
atom  17.04246  14.42942  17.71036 H   0.000 0.0 0.0 0.0 0.0
atom  18.49851  20.59424  18.34359 H   0.000 0.0 0.0 0.0 0.0
atom   2.88941  20.72330   3.03299 O   0.000 0.0 0.0 0.0 0.0
atom   1.42244  26.34883  34.37355 C   0.000 0.0 0.0 0.0 0.0
atom   1.08906  24.14957   0.53778 C   0.000 0.0 0.0 0.0 0.0
atom   3.84319  27.03820  33.64374 C   0.000 0.0 0.0 0.0 0.0
atom   3.22017  22.62569   1.26349 C   0.000 0.0 0.0 0.0 0.0
atom  34.59711  27.91277  33.87334 C   0.000 0.0 0.0 0.0 0.0
atom   5.89373  25.64377  34.46860 C   0.000 0.0 0.0 0.0 0.0
atom   5.71011  23.38971   0.83305 C   0.000 0.0 0.0 0.0 0.0
atom  34.88302  23.12968   1.02371 H   0.000 0.0 0.0 0.0 0.0
atom   4.08941  28.69436  32.49403 H   0.000 0.0 0.0 0.0 0.0
atom  35.18330  29.79002  33.07833 H   0.000 0.0 0.0 0.0 0.0
atom  33.29905  27.07373  32.46757 H   0.000 0.0 0.0 0.0 0.0
atom  33.42491  28.12631   0.20697 H   0.000 0.0 0.0 0.0 0.0
atom   7.79605  26.22751  33.99580 H   0.000 0.0 0.0 0.0 0.0
atom   7.28266  22.43880   1.50234 H   0.000 0.0 0.0 0.0 0.0
atom   1.35152  19.84949   2.87223 H   0.000 0.0 0.0 0.0 0.0
atom  31.36246  33.26088  21.92290 O   0.000 0.0 0.0 0.0 0.0
atom  31.18275  31.84472  15.26237 C   0.000 0.0 0.0 0.0 0.0
atom  31.55673  31.80050  17.82444 C   0.000 0.0 0.0 0.0 0.0
atom  29.94422  33.88298  14.22087 C   0.000 0.0 0.0 0.0 0.0
atom  30.71164  33.72538  19.43697 C   0.000 0.0 0.0 0.0 0.0
atom  32.10815  29.69724  13.68288 C   0.000 0.0 0.0 0.0 0.0
atom  29.08118   0.36425  15.75996 C   0.000 0.0 0.0 0.0 0.0
atom  29.38770   0.34118  18.41583 C   0.000 0.0 0.0 0.0 0.0
atom  32.65881  30.21275  18.71509 H   0.000 0.0 0.0 0.0 0.0
atom  29.59481  33.91605  12.12426 H   0.000 0.0 0.0 0.0 0.0
atom  33.70875  30.21578  12.71430 H   0.000 0.0 0.0 0.0 0.0
atom  32.57056  27.94716  14.76292 H   0.000 0.0 0.0 0.0 0.0
atom  30.86433  29.35047  12.12726 H   0.000 0.0 0.0 0.0 0.0
atom  28.28391   2.11011  15.09062 H   0.000 0.0 0.0 0.0 0.0
atom  28.43546   1.85051  19.40465 H   0.000 0.0 0.0 0.0 0.0
atom  31.24190  34.82179  22.83829 H   0.000 0.0 0.0 0.0 0.0
atom  22.62399  24.75182   4.72645 O   0.000 0.0 0.0 0.0 0.0
atom  24.98048  26.07973  33.56532 C   0.000 0.0 0.0 0.0 0.0
atom  24.19794  24.70420   0.32261 C   0.000 0.0 0.0 0.0 0.0
atom  24.97708  28.77505  33.57533 C   0.000 0.0 0.0 0.0 0.0
atom  23.29125  25.88604   2.50192 C   0.000 0.0 0.0 0.0 0.0
atom  26.05913  24.69211  31.43200 C   0.000 0.0 0.0 0.0 0.0
atom  23.96040  29.87563   0.35865 C   0.000 0.0 0.0 0.0 0.0
atom  23.38801  28.61480   2.56804 C   0.000 0.0 0.0 0.0 0.0
atom  24.17508  22.66424   0.15403 H   0.000 0.0 0.0 0.0 0.0
atom  25.55590  29.66549  31.92333 H   0.000 0.0 0.0 0.0 0.0
atom  27.13477  23.07809  31.95262 H   0.000 0.0 0.0 0.0 0.0
atom  24.53696  23.85666  30.30648 H   0.000 0.0 0.0 0.0 0.0
atom  27.16614  26.10827  30.36525 H   0.000 0.0 0.0 0.0 0.0
atom  23.58510  31.95149   0.28686 H   0.000 0.0 0.0 0.0 0.0
atom  22.90102  29.60388   4.14133 H   0.000 0.0 0.0 0.0 0.0
atom  22.93447  22.93353   4.54426 H   0.000 0.0 0.0 0.0 0.0
atom  20.76696  14.12767  32.59967 O   0.000 0.0 0.0 0.0 0.0
atom  25.90021   9.50506  31.48076 C   0.000 0.0 0.0 0.0 0.0
atom  24.04733  11.26129  30.98489 C   0.000 0.0 0.0 0.0 0.0
atom  26.50813   9.08947  34.08442 C   0.000 0.0 0.0 0.0 0.0
atom  22.72415  12.35488  32.96438 C   0.000 0.0 0.0 0.0 0.0
atom  27.01912   7.96380  29.30077 C   0.000 0.0 0.0 0.0 0.0
atom  25.20649  10.14913   0.71498 C   0.000 0.0 0.0 0.0 0.0
atom  23.07960  11.73662   0.26268 C   0.000 0.0 0.0 0.0 0.0
atom  23.46171  11.44845  29.02468 H   0.000 0.0 0.0 0.0 0.0
atom  27.70660   7.53160  34.84863 H   0.000 0.0 0.0 0.0 0.0
atom  27.98760   6.25945  29.98787 H   0.000 0.0 0.0 0.0 0.0
atom  25.61732   7.56308  27.92259 H   0.000 0.0 0.0 0.0 0.0
atom  28.39918   9.04920  28.33531 H   0.000 0.0 0.0 0.0 0.0
atom  25.51111   9.58426   2.56714 H   0.000 0.0 0.0 0.0 0.0
atom  21.78382  12.13335   1.74925 H   0.000 0.0 0.0 0.0 0.0
atom  20.68626  14.47585  30.82257 H   0.000 0.0 0.0 0.0 0.0
atom   8.95787  29.35123  19.42166 O   0.000 0.0 0.0 0.0 0.0
atom   4.04265  33.60576  17.05531 C   0.000 0.0 0.0 0.0 0.0
atom   5.68065  32.47362  18.57548 C   0.000 0.0 0.0 0.0 0.0
atom   3.87267  32.73894  14.52708 C   0.000 0.0 0.0 0.0 0.0
atom   7.18200  30.45067  17.61085 C   0.000 0.0 0.0 0.0 0.0
atom   2.51594   0.60503  17.82567 C   0.000 0.0 0.0 0.0 0.0
atom   5.28486  30.86093  13.53157 C   0.000 0.0 0.0 0.0 0.0
atom   6.99558  29.59009  15.08850 C   0.000 0.0 0.0 0.0 0.0
atom   5.86327  32.73988  20.62787 H   0.000 0.0 0.0 0.0 0.0
atom   2.50392  33.66075  13.29693 H   0.000 0.0 0.0 0.0 0.0
atom   3.48900   2.19318  18.51550 H   0.000 0.0 0.0 0.0 0.0
atom   1.32391   1.32306  16.39602 H   0.000 0.0 0.0 0.0 0.0
atom   1.10999   0.24192  19.41127 H   0.000 0.0 0.0 0.0 0.0
atom   5.00915  30.20141  11.69221 H   0.000 0.0 0.0 0.0 0.0
atom   8.06184  27.97173  14.58889 H   0.000 0.0 0.0 0.0 0.0
atom  10.26749  28.70891  18.37855 H   0.000 0.0 0.0 0.0 0.0
atom  23.91751   2.74997  32.24629 O   0.000 0.0 0.0 0.0 0.0
atom  18.33851  35.23149   0.56602 C   0.000 0.0 0.0 0.0 0.0
atom  20.38542   0.16989  34.07233 C   0.000 0.0 0.0 0.0 0.0
atom  18.25971   1.77084   2.55950 C   0.000 0.0 0.0 0.0 0.0
atom  22.05424   2.24084  34.09879 C   0.000 0.0 0.0 0.0 0.0
atom  16.27086  33.25068   0.42936 C   0.000 0.0 0.0 0.0 0.0
atom  20.07626   3.68536   2.62829 C   0.000 0.0 0.0 0.0 0.0
atom  22.08221   3.93762   0.86286 C   0.000 0.0 0.0 0.0 0.0
atom  20.55191  33.81684  32.64502 H   0.000 0.0 0.0 0.0 0.0
atom  16.84031   1.76521   4.06183 H   0.000 0.0 0.0 0.0 0.0
atom  14.58026  34.03680  34.51604 H   0.000 0.0 0.0 0.0 0.0
atom  16.80027  31.65310  34.73600 H   0.000 0.0 0.0 0.0 0.0
atom  15.46644  32.54354   2.19019 H   0.000 0.0 0.0 0.0 0.0
atom  19.96439   4.98402   4.14583 H   0.000 0.0 0.0 0.0 0.0
atom  23.48211   5.68481   0.89302 H   0.000 0.0 0.0 0.0 0.0
atom  23.45623   1.69337  30.61489 H   0.000 0.0 0.0 0.0 0.0
atom  14.29667  28.64617  15.31204 O   0.000 0.0 0.0 0.0 0.0
atom  17.33620  31.89858   9.78863 C   0.000 0.0 0.0 0.0 0.0
atom  16.51897  29.94743  11.36457 C   0.000 0.0 0.0 0.0 0.0
atom  16.58516  34.36675  10.10019 C   0.000 0.0 0.0 0.0 0.0
atom  14.96676  30.45785  13.43949 C   0.000 0.0 0.0 0.0 0.0
atom  19.21303  31.17141   7.77201 C   0.000 0.0 0.0 0.0 0.0
atom  14.96459  34.84107  12.16540 C   0.000 0.0 0.0 0.0 0.0
atom  14.04460  32.96060  13.77081 C   0.000 0.0 0.0 0.0 0.0
atom  17.04641  28.03163  10.77099 H   0.000 0.0 0.0 0.0 0.0
atom  17.23060   0.44314   8.77368 H   0.000 0.0 0.0 0.0 0.0
atom  18.29312  30.52985   5.94689 H   0.000 0.0 0.0 0.0 0.0
atom  20.12445  32.78278   6.98961 H   0.000 0.0 0.0 0.0 0.0
atom  20.65263  29.69553   8.30225 H   0.000 0.0 0.0 0.0 0.0
atom  14.27378   1.36684  12.62216 H   0.000 0.0 0.0 0.0 0.0
atom  12.81952  33.54547  15.16938 H   0.000 0.0 0.0 0.0 0.0
atom  15.31353  27.15499  15.08529 H   0.000 0.0 0.0 0.0 0.0
atom  14.54868  28.88976  22.56087 O   0.000 0.0 0.0 0.0 0.0
atom  15.87566  23.52407  26.49056 C   0.000 0.0 0.0 0.0 0.0
atom  16.14367  25.35748  24.68077 C   0.000 0.0 0.0 0.0 0.0
atom  13.74179  23.46303  28.12763 C   0.000 0.0 0.0 0.0 0.0
atom  14.21267  27.09659  24.44115 C   0.000 0.0 0.0 0.0 0.0
atom  17.96799  21.59598  27.12664 C   0.000 0.0 0.0 0.0 0.0
atom  11.93955  25.30872  27.85041 C   0.000 0.0 0.0 0.0 0.0
atom  12.10353  27.06447  25.92723 C   0.000 0.0 0.0 0.0 0.0
atom  17.71212  25.37657  23.32905 H   0.000 0.0 0.0 0.0 0.0
atom  13.63645  21.92933  29.61031 H   0.000 0.0 0.0 0.0 0.0
atom  19.72553  22.39061  26.33352 H   0.000 0.0 0.0 0.0 0.0
atom  18.04772  21.21936  29.28131 H   0.000 0.0 0.0 0.0 0.0
atom  17.79942  19.68906  26.23261 H   0.000 0.0 0.0 0.0 0.0
atom  10.50049  25.53077  29.31249 H   0.000 0.0 0.0 0.0 0.0
atom  10.35562  28.24404  25.91136 H   0.000 0.0 0.0 0.0 0.0
atom  13.07112  29.98693  22.41990 H   0.000 0.0 0.0 0.0 0.0
atom  11.90713   3.79102  18.54160 O   0.000 0.0 0.0 0.0 0.0
atom  18.85281   3.32288  17.66507 C   0.000 0.0 0.0 0.0 0.0
atom  16.41006   2.77051  18.50108 C   0.000 0.0 0.0 0.0 0.0
atom  19.14765   5.70799  16.36425 C   0.000 0.0 0.0 0.0 0.0
atom  14.49683   4.51236  18.07306 C   0.000 0.0 0.0 0.0 0.0
atom  21.04342   1.48670  17.85049 C   0.000 0.0 0.0 0.0 0.0
atom  17.27695   7.41891  16.27869 C   0.000 0.0 0.0 0.0 0.0
atom  14.88203   6.87384  16.98597 C   0.000 0.0 0.0 0.0 0.0
atom  15.72607   1.12925  19.55167 H   0.000 0.0 0.0 0.0 0.0
atom  21.14150   6.30543  15.99647 H   0.000 0.0 0.0 0.0 0.0
atom  20.83631   0.06765  19.29297 H   0.000 0.0 0.0 0.0 0.0
atom  21.35674   0.67695  16.00830 H   0.000 0.0 0.0 0.0 0.0
atom  22.67369   2.78313  18.24124 H   0.000 0.0 0.0 0.0 0.0
atom  17.78085   9.15623  15.34522 H   0.000 0.0 0.0 0.0 0.0
atom  13.34082   8.23673  16.54376 H   0.000 0.0 0.0 0.0 0.0
atom  11.85935   2.45901  19.77920 H   0.000 0.0 0.0 0.0 0.0
atom  33.16715  10.22605   1.56912 O   0.000 0.0 0.0 0.0 0.0
atom   2.70034  11.70982   6.25934 C   0.000 0.0 0.0 0.0 0.0
atom   0.46323  11.73163   4.80760 C   0.000 0.0 0.0 0.0 0.0
atom   4.29847   9.66056   5.76393 C   0.000 0.0 0.0 0.0 0.0
atom  35.20144   9.89500   3.13088 C   0.000 0.0 0.0 0.0 0.0
atom   3.14785  13.86430   8.18268 C   0.000 0.0 0.0 0.0 0.0