RuNNerActiveLearn

512 atoms

3 atom types

0.0 16.86263 xlo xhi
0.0 16.86263 ylo yhi
0.0 16.86263 zlo zhi
0.0 0.0 0.0 xy xz yz

Masses

1 1.00794
2 12.011
3 15.9994

Atoms

   1 3  14.50717   2.57047   1.65234
   2 2  12.46712   2.35629   4.54045
   3 2  13.37598   2.05136   3.58982
   4 2  11.99575   3.65141   4.62567
   5 2  13.72295   2.99588   2.65531
   6 2  11.93964   1.36934   5.46502
   7 2  12.54991   4.58217   3.81616
   8 2  13.38067   4.29719   2.82184
   9 1  13.76832   1.10475   3.43540
  10 1  11.27480   3.96327   5.30401
  11 1  11.17235   1.71100   6.10409
  12 1  11.48900   0.63427   5.01508
  13 1  12.64200   0.87611   6.11170
  14 1  12.18773   5.56369   3.80925
  15 1  13.63967   5.03286   2.15288
  16 1  14.86164   3.32577   1.22033
  17 3   6.76498   7.28900   2.57907
  18 2   6.83036   4.12296   3.82168
  19 2   7.06647   5.15127   3.06460
  20 2   6.25033   4.28620   4.97002
  21 2   6.61621   6.33653   3.41220
  22 2   7.17245   2.81042   3.37224
  23 2   5.83061   5.49040   5.46992
  24 2   6.11405   6.51336   4.68577
  25 1   7.59951   5.27858   2.22917
  26 1   6.10496   3.40967   5.53203
  27 1   6.89383   2.60689   2.42559
  28 1   8.15812   2.59077   3.52573
  29 1   6.62229   2.11661   3.96052
  30 1   5.31015   5.49924   6.36510
  31 1   5.83540   7.55521   5.01215
  32 1   6.14121   7.93774   2.72063
  33 3  16.23778   3.45761  10.39520
  34 2  13.58593   5.27172   8.99106
  35 2  14.59459   4.45174   9.13764
  36 2  13.48118   6.27920   9.82380
  37 2  15.39003   4.43888  10.19651
  38 2  12.62731   5.07034   7.88486
  39 2  14.33839   6.34310  10.82434
  40 2  15.27297   5.39949  11.01230
  41 1  14.63175   3.60509   8.49211
  42 1  12.68952   6.91378   9.64949
  43 1  12.49979   5.87912   7.22536
  44 1  12.88384   4.21484   7.32446
  45 1  11.82981   4.67946   8.41674
  46 1  14.17512   7.08435  11.49568
  47 1  16.01729   5.52263  11.67548
  48 1   0.14466   3.66683  10.89490
  49 3   3.33723   3.05283   8.15893
  50 2   0.99364   2.44782   5.69767
  51 2   1.69100   3.03826   6.65958
  52 2   1.47347   1.35243   5.05783
  53 2   2.74928   2.42055   7.20104
  54 2  16.58939   3.06755   5.25448
  55 2   2.58891   0.77296   5.56525
  56 2   3.19212   1.32520   6.63385
  57 1   1.40173   3.94926   7.06134
  58 1   1.01952   0.86362   4.29087
  59 1  16.58333   4.09270   5.02155
  60 1  16.12987   2.54332   4.48382
  61 1  16.01112   2.97059   6.12536
  62 1   2.89734  16.75701   5.14028
  63 1   3.85867   0.72708   7.20733
  64 1   4.04143   2.62032   8.61050
  65 3   9.73395   9.32214  11.68044
  66 2  12.63442  10.58823  10.25750
  67 2  11.32276  10.30632  10.43163
  68 2  13.53142  10.07759  11.12512
  69 2  10.97883   9.54816  11.47656
  70 2  13.08441  11.46792   9.24376
  71 2  13.15135   9.27040  12.11471
  72 2  11.83791   8.96794  12.31883
  73 1  10.63426  10.69396   9.75921
  74 1  14.48603  10.30036  11.06467
  75 1  14.15657  11.61964   9.30484
  76 1  12.75234  11.35741   8.26456
  77 1  12.69816  12.41055   9.58682
  78 1  13.72857   8.83971  12.80308
  79 1  11.49431   8.48389  13.15560
  80 1   9.14783   9.57150  10.99744
  81 3  14.93672  12.15064   2.86518
  82 2  16.37919  15.37385   2.81154
  83 2  15.42014  14.39369   2.83088
  84 2   0.71352  15.10485   3.31908
  85 2  15.81785  13.10170   3.01670
  86 2  15.99046  16.65321   2.31728
  87 2   1.00451  13.87168   3.76438
  88 2   0.20553  12.86024   3.42439
  89 1  14.43110  14.59752   2.52818
  90 1   1.47275  15.75945   3.22020
  91 1  16.70987   0.23958   1.68420
  92 1  15.09906  16.40975   1.84039
  93 1  15.64083   0.36330   3.11953
  94 1   2.01222  13.65423   4.11807
  95 1   0.41447  11.85566   3.59649
  96 1  14.24269  12.40074   2.38153
  97 3   4.36691   8.87036   2.61573
  98 2   6.05010  10.66690   5.14367
  99 2   5.80973   9.84475   4.16351
 100 2   4.99394  11.18335   5.81177
 101 2   4.59980   9.57143   3.69643
 102 2   7.39244  10.97891   5.44620
 103 2   3.73581  10.94043   5.33990
 104 2   3.52380  10.16782   4.29513
 105 1   6.63402   9.48502   3.69070
 106 1   5.20653  11.90059   6.55765
 107 1   7.52741  11.84446   6.02682
 108 1   7.77662  10.13534   5.97662
 109 1   7.95933  11.24818   4.60645
 110 1   2.93264  11.27766   5.88252
 111 1   2.61054  10.17493   4.05714
 112 1   3.55122   9.03271   2.27990
 113 3   2.26411   5.28887   9.40347
 114 2   0.96210   8.34724   8.23393
 115 2   1.15834   7.30292   9.05325
 116 2   1.51550   8.35439   7.02675
 117 2   1.98156   6.26377   8.64623
 118 2   0.22485   9.46463   8.73434
 119 2   2.22107   7.33641   6.61066
 120 2   2.53165   6.23758   7.37469
 121 1   0.69014   7.26912   9.94975
 122 1   1.39590   9.08439   6.39871
 123 1  16.36432   9.16458   9.37566
 124 1   0.82951  10.02288   9.31626
 125 1  16.72628  10.13211   7.98641
 126 1   2.47022   7.26086   5.59642
 127 1   3.00149   5.41887   6.93216
 128 1   2.69437   4.50867   9.04324
 129 3   1.42063   4.36152  11.66790
 130 2   3.05533   6.73045  13.76471
 131 2   2.60313   6.14606  12.63552
 132 2   2.93106   6.12600  14.99194
 133 2   1.95665   4.93530  12.71623
 134 2   3.62380   8.06680  13.73696
 135 2   2.38397   4.85017  14.99392
 136 2   1.86546   4.33148  13.90058
 137 1   2.72508   6.67289  11.75239
 138 1   3.30068   6.48312  15.87942
 139 1   4.03401   8.21309  14.70027
 140 1   4.33728   8.27101  13.00221
 141 1   2.90491   8.75478  13.77479
 142 1   2.35420   4.24936  15.78588
 143 1   1.40918   3.39540  13.91199
 144 1   1.60640   4.87195  10.90743
 145 3   5.60067   0.32156  11.59043
 146 2   2.95795  15.73426  13.39105
 147 2   3.60241  16.47039  12.47962
 148 2   3.66280  14.98797  14.23093
 149 2   4.94020  16.45523  12.46485
 150 2   1.51045  15.73322  13.51963
 151 2   4.98741  15.04206  14.25522
 152 2   5.68901  15.79853  13.38393
 153 1   2.93682   0.01304  11.84256
 154 1   3.25199  14.37299  14.86778
 155 1   1.05345  15.56988  12.53765
 156 1   1.22138  14.98027  14.21842
 157 1   1.18584  16.70759  13.79947
 158 1   5.50781  14.46271  14.99767
 159 1   6.72132  15.73425  13.31605
 160 1   6.43694   0.43470  11.90306
 161 3  14.57840  13.72904  11.89054
 162 2  16.62180  11.20339  13.02768
 163 2  15.61878  12.09676  12.93645
 164 2   0.78319  11.25032  12.15250
 165 2  15.59387  12.96738  11.92919
 166 2  16.62282  10.13490  13.97555
 167 2   0.78237  12.16487  11.17257
 168 2  16.62243  13.02846  11.14141
 169 1  14.82682  12.08622  13.62269
 170 1   1.64435  10.66732  12.30977
 171 1   0.09571   9.29824  13.48536
 172 1   0.29637  10.27948  14.85366
 173 1  15.65774   9.99740  14.26408
 174 1   1.62707  12.34884  10.54699
 175 1  16.65280  13.72997  10.36919
 176 1  14.54926  14.22113  11.10104
 177 3   8.08497  12.47239   8.40201
 178 2  10.93189  13.93684   6.86326
 179 2   9.80502  13.14543   6.99073
 180 2  11.39077  14.71440   7.86232
 181 2   9.12138  13.24354   8.12237
 182 2  11.67139  13.76639   5.68809
 183 2  10.64420  14.76703   8.96851
 184 2   9.46491  14.08455   9.11550
 185 1   9.55483  12.52294   6.23890
 186 1  12.27633  15.23438   7.73624
 187 1  11.13568  13.11021   5.06231
 188 1  11.83517  14.68059   5.33125
 189 1  12.62731  13.38271   5.96161
 190 1  11.02452  15.39289   9.66259
 191 1   8.95911  14.13538  10.06730
 192 1   7.72631  12.81621   9.16138
 193 3   9.07474   8.93926   0.93151
 194 2   8.40703  11.92104  15.96442
 195 2   9.09544  10.86156  16.45943
 196 2   7.12316  12.12927  16.39987
 197 2   8.50360  10.00565   0.47044
 198 2   9.00855  12.94561  15.16495
 199 2   6.54801  11.30151   0.45232
 200 2   7.20349  10.19943   0.81416
 201 1  10.07061  10.80885  16.13687
 202 1   6.53577  12.91102  15.93891
 203 1   9.57858  13.51239  15.78708
 204 1   9.66962  12.55954  14.45409
 205 1   8.32012  13.51994  14.55937
 206 1   5.58971  11.40050   0.79188
 207 1   6.74946   9.57892   1.50154
 208 1   9.37329   8.33598   0.30586
 209 3   7.95092   0.67946  12.55594
 210 2  10.48375  15.24375  12.14935
 211 2   9.22383  15.73120  12.26238
 212 2  11.57803  16.06759  12.00365
 213 2   9.13235   0.18619  12.35096
 214 2  10.73087  13.77113  12.10946
 215 2  11.39687   0.50211  12.10727
 216 2  10.18809   0.99781  12.36455
 217 1   8.37967  15.15856  12.43912
 218 1  12.52706  15.61364  11.95720
 219 1  11.38276  13.49641  11.35620
 220 1  11.07196  13.35087  13.03264
 221 1   9.79307  13.28505  12.08142
 222 1  12.19576   1.11261  12.01016
 223 1  10.08334   1.98019  12.60785
 224 1   7.98152   1.46261  13.04249
 225 3  14.46607   9.71418   3.65375
 226 2  15.18190   7.43625   6.17665
 227 2  15.10672   8.01514   4.96787
 228 2  14.97921   8.13579   7.26891
 229 2  14.55204   9.21685   4.84356
 230 2  15.79636   6.18047   6.44334
 231 2  14.35175   9.32451   7.13112
 232 2  14.11895   9.88600   5.95062
 233 1  15.48985   7.46924   4.25156
 234 1  15.02527   7.72780   8.24732
 235 1  16.52787   6.07670   5.65094
 236 1  16.30060   6.17257   7.32964
 237 1  15.14627   5.38073   6.43416
 238 1  14.00673   9.66789   8.01472
 239 1  13.71752  10.83690   5.94403
 240 1  14.30791  10.59435   3.69246
 241 3  10.20581   9.56512   3.19570
 242 2  10.44454   8.22074   6.31543
 243 2  10.40851   9.10514   5.35916
 244 2  10.20116   6.94901   6.05962
 245 2  10.09457   8.69785   4.16717
 246 2  10.73293   8.50314   7.72765
 247 2   9.78783   6.50083   4.88219
 248 2   9.78663   7.37682   3.88213
 249 1  10.73884  10.04503   5.48875
 250 1  10.34372   6.27541   6.85125
 251 1  10.46023   9.54924   7.74641
 252 1  10.08738   8.01713   8.34336
 253 1  11.69141   8.37175   8.07685
 254 1   9.49841   5.51161   4.72181
 255 1   9.56563   7.19597   2.88723
 256 1   9.75943   9.42085   2.42994
 257 3   8.64282   2.96251  14.59851
 258 2   5.34986   2.80993  15.68090
 259 2   6.42647   2.55922  14.96004
 260 2   5.30069   3.84542  16.53797
 261 2   7.59266   3.22144  15.27441
 262 2   4.16168   2.09652  15.19636
 263 2   6.38315   4.60379  16.79871
 264 2   7.55385   4.21146  16.26053
 265 1   6.47741   1.87304  14.17297
 266 1   4.36576   4.10241   0.08274
 267 1   3.52216   2.10409  16.01949
 268 1   3.66287   2.41237  14.28980
 269 1   4.47550   1.06942  15.09798
 270 1   6.23008   5.44311   0.59355
 271 1   8.40694   4.86237  16.52344
 272 1   9.39449   3.41041  14.81287
 273 3   6.28100  16.44112   2.99736
 274 2   3.48742  15.18312   1.39143
 275 2   4.41810  16.00244   1.80718
 276 2   3.49161  13.90944   1.81850
 277 2   5.34384  15.59752   2.68038
 278 2   2.39515  15.64127   0.48093
 279 2   4.41301  13.50288   2.67270
 280 2   5.37896  14.35229   3.02131
 281 1   4.37797   0.08630   1.47576
 282 1   2.72651  13.26414   1.63652
 283 1   2.10927  14.76930  16.79123
 284 1   1.53928  16.24887   0.88615
 285 1   2.83721  16.37830  16.74909
 286 1   4.55219  12.58589   3.04312
 287 1   6.14494  14.04996   3.60678
 288 1   6.84104  16.08435   3.59164
 289 3   8.65041   7.72605  13.24372
 290 2   7.24970   4.71574  12.24893
 291 2   7.34688   5.90702  12.83243
 292 2   8.22820   4.10554  11.64664
 293 2   8.49325   6.54297  12.74776
 294 2   5.90776   4.19527  12.07387
 295 2   9.46558   4.72658  11.63258
 296 2   9.60092   5.95263  12.18453
 297 1   6.56699   6.24781  13.41807
 298 1   8.17749   3.15215  11.14557
 299 1   5.14239   4.66895  12.60308
 300 1   5.62749   4.51762  11.10746
 301 1   5.88593   3.05569  12.08783
 302 1  10.26184   4.26936  11.22326
 303 1  10.40930   6.47802  12.16883
 304 1   9.13200   8.31093  12.68527
 305 3  16.28403   8.68615   2.21322
 306 2  15.69072   7.13292  16.01494
 307 2  16.32946   7.76368   0.14485
 308 2  14.38902   6.76823  16.10561
 309 2  15.67178   8.06756   1.25500
 310 2  16.38531   6.96340  14.77273
 311 2  13.76739   7.02848   0.44062
 312 2  14.38126   7.68297   1.41454
 313 1   0.41897   8.02609   0.04410
 314 1  13.83874   6.23889  15.38695
 315 1  16.60426   5.93695  14.72450
 316 1  15.93681   7.34602  13.92788
 317 1   0.51999   7.26987  14.78427
 318 1  12.71979   6.90026   0.37208
 319 1  13.93415   7.86355   2.28049
 320 1  15.75052   9.01315   2.85656
 321 3   8.34686  10.14037   9.64863
 322 2   4.98787   9.49960   9.36356
 323 2   6.17440  10.04649   9.64160
 324 2   4.93679   8.19272   8.97681
 325 2   7.31347   9.45077   9.52460
 326 2   3.80206  10.29101   9.48429
 327 2   6.12061   7.50879   8.93980
 328 2   7.28958   8.15942   9.22195
 329 1   6.19412  10.96958   9.97512
 330 1   4.07746   7.71172   8.61634
 331 1   3.38342  10.33977   8.55645
 332 1   3.17133   9.79166  10.15380
 333 1   3.90953  11.26511   9.79518
 334 1   6.08499   6.49956   8.63060
 335 1   8.17612   7.60049   8.98372
 336 1   8.18459  10.85257   9.06210
 337 3   1.82641   8.80625   1.85464
 338 2   1.29985  11.57614  16.64361
 339 2   1.08936  10.64386   0.69502
 340 2   2.39444  11.58127  15.85623
 341 2   1.98769   9.61856   0.87233
 342 2   0.19565  12.50338  16.47152
 343 2   3.31161  10.66344  16.04885
 344 2   3.10488   9.66945   0.11846
 345 1   0.27144  10.65629   1.29355
 346 1   2.49434  12.28733  15.11164
 347 1   0.45721  13.20402  15.77298
 348 1  16.07864  12.10896  16.30718
 349 1  16.82947  13.03652   0.53263
 350 1   4.16101  10.74254  15.56844
 351 1   3.77430   8.89838   0.30485
 352 1   0.92347   8.78713   2.01108
 353 3  14.56744  15.89553  10.24117
 354 2  15.02436  14.63945   7.06024
 355 2  14.71445  14.72465   8.34622
 356 2  15.14341  15.81230   6.32696
 357 2  14.63368  15.90659   9.00410
 358 2  15.13817  13.34557   6.43223
 359 2  15.02134   0.13876   6.96742
 360 2  14.74343   0.17658   8.27436
 361 1  14.62773  13.87233   8.96626
 362 1  15.40918  15.70565   5.32989
 363 1  16.13409  12.92680   6.50365
 364 1  14.65289  12.50898   6.78242
 365 1  14.80513  13.40190   5.40260
 366 1  15.09080   1.02340   6.46386
 367 1  14.70284   1.09959   8.77492
 368 1  14.71687  16.70554  10.58330
 369 3  11.73252  11.78289   2.62168
 370 2  12.61804  11.52833  16.07951
 371 2  12.32797  11.21155   0.47932
 372 2  12.54220  12.81605  15.74598
 373 2  11.99113  12.13457   1.34281
 374 2  12.77229  10.45723  15.14445
 375 2  12.34197  13.81788  16.62740
 376 2  12.05211  13.46124   1.05645
 377 1  12.21224  10.22637   0.75641
 378 1  12.66258  12.96326  14.71385
 379 1  13.77387  10.26704  14.92440
 380 1  12.30073   9.62079  15.50861
 381 1  12.50822  10.73323  14.20931
 382 1  12.28362  14.77563  16.31541
 383 1  11.71883  14.13526   1.76934
 384 1  11.28999  10.93354   2.61423
 385 3   9.76254   7.72655  15.48596
 386 2  11.56145   4.78967  15.23922
 387 2  10.90944   5.94007  14.92090
 388 2  11.53339   4.33268  16.53166
 389 2  10.23191   6.54396  15.86801
 390 2  12.28800   3.97648  14.19640
 391 2  10.80637   4.98098   0.61814
 392 2  10.23471   6.12217   0.25447
 393 1  10.88978   6.30338  14.01775
 394 1  12.04538   3.57011   0.02284
 395 1  12.09062   4.44895  13.31949
 396 1  13.29716   3.86207  14.50907
 397 1  11.93299   2.95580  14.14660
 398 1  10.80203   4.62296   1.62645
 399 1   9.89807   6.74493   0.91970
 400 1   9.37743   7.79571  14.64212
 401 3   5.54033  15.35473   8.92852
 402 2   2.00616  15.95616   8.99300
 403 2   3.37521  16.16106   9.10574
 404 2   1.63395  14.71582   8.60781
 405 2   4.29454  15.20394   8.75306
 406 2   1.13836   0.17312   9.28443
 407 2   2.50769  13.73513   8.34338
 408 2   3.86401  13.97975   8.38605
 409 1   3.64520   0.18520   9.58473
 410 1   0.63727  14.65466   8.47438
 411 1   0.27382  16.57363   9.57291
 412 1   1.44986   0.70820  10.14859
 413 1   0.85314   0.78557   8.49262
 414 1   2.10363  12.86029   7.98614
 415 1   4.48292  13.16583   8.15245
 416 1   5.98515  15.10694   8.15346
 417 3  11.61842  16.85049  14.86621
 418 2   8.69591  16.70890  16.74993
 419 2   9.60835  16.46209  15.81642
 420 2   9.02267   0.61036   0.90590
 421 2  10.81395   0.11597  15.81846
 422 2   7.35346  16.18723  16.63045
 423 2  10.29657   1.07358   1.06661
 424 2  11.20139   0.80839   0.08036
 425 1   9.41362  15.93792  15.00076
 426 1   8.35313   0.74099   1.65131
 427 1   7.52989  15.16922  16.50446
 428 1   6.84266  16.35888   0.60971
 429 1   6.78280  16.61742  15.89267
 430 1  10.61810   1.61931   1.91439
 431 1  12.24158   1.09858   0.18853
 432 1  11.27954   0.06067  14.03264
 433 3   6.48763  14.14757   6.58988
 434 2   8.65981  15.89046   4.48514
 435 2   8.00798  14.89963   5.13473
 436 2   8.43603   0.29363   4.80101
 437 2   7.05169  15.14060   6.02267
 438 2   9.50682  15.57137   3.36431
 439 2   7.47767   0.50979   5.70033
 440 2   6.80469  16.42074   6.30505
 441 1   8.19104  13.85797   4.92870
 442 1   8.72335   1.01620   4.18742
 443 1   9.01773  15.50562   2.43234
 444 1  10.24355  16.32692   3.29401
 445 1  10.00989  14.66421   3.43872
 446 1   7.14552   1.48969   5.77818
 447 1   6.07207  16.69941   6.83014
 448 1   7.09939  13.50443   6.68072
 449 3   6.83956  13.92929  10.50101
 450 2   6.33271  11.38994  12.76415
 451 2   6.98064  12.20838  11.89228
 452 2   5.03383  11.59911  13.01329
 453 2   6.22581  13.16882  11.29519
 454 2   6.96054  10.19242  13.27039
 455 2   4.28026  12.45565  12.42400
 456 2   4.86438  13.29504  11.49754
 457 1   8.01790  12.08601  11.61094
 458 1   4.57234  10.81816  13.54054
 459 1   6.96636   9.41760  12.51632
 460 1   7.95258  10.34135  13.51837
 461 1   6.42900   9.80102  14.12849
 462 1   3.30729  12.55136  12.68671
 463 1   4.22344  13.98548  11.12213
 464 1   6.21806  14.35848   9.98922
 465 3   5.35603   1.89643   9.58747
 466 2   8.59954   1.81337   8.47961
 467 2   7.41892   1.43177   8.99305
 468 2   8.71536   3.04764   7.98644
 469 2   6.40826   2.29114   8.97295
 470 2   9.71820   0.92149   8.49245
 471 2   7.64582   3.92019   8.03448
 472 2   6.46801   3.50867   8.51771
 473 1   7.45359   0.52697   9.44825
 474 1   9.64561   3.28361   7.63726
 475 1   9.42196   0.08952   9.01071
 476 1   9.99763   0.50072   7.52263
 477 1  10.65270   1.28255   8.81502
 478 1   7.59080   4.87193   7.60226
 479 1   5.74708   4.21472   8.66414
 480 1   5.53688   1.11429  10.08459
 481 3  16.05639   4.46679   0.75611
 482 2   2.42813   4.82022   2.02278
 483 2   1.19358   5.16980   1.59355
 484 2   2.69454   3.53805   2.28318
 485 2   0.37491   4.23099   1.25718
 486 2   3.40799   5.80324   2.50657
 487 2   1.82677   2.56926   2.04888
 488 2   0.67791   2.91698   1.45463
 489 1   0.84412   6.14282   1.61863
 490 1   3.63004   3.41684   2.79524
 491 1   4.35478   5.40131   2.41028
 492 1   3.40701   6.66429   1.87366
 493 1   3.08873   6.18544   3.44433
 494 1   2.09135   1.60722   2.38667
 495 1   0.02901   2.13312   1.29301
 496 1  15.91008   5.30161   0.36686
 497 3  15.10507   1.55748  11.38792
 498 2  15.16292   0.32585  14.69913
 499 2  14.98853   0.42676  13.37417
 500 2  15.42656   1.52036  15.40959
 501 2  15.15414   1.50477  12.68100
 502 2  14.87147  15.94745  15.38533
 503 2  15.65231   2.65328  14.69151
 504 2  15.42241   2.63599  13.37050
 505 1  14.66803  16.48427  12.81630
 506 1  15.54188   1.52095  16.43547
 507 1  14.99049  15.12121  14.85082
 508 1  15.34981  16.01279  16.31930
 509 1  13.91397  16.12240  15.68070
 510 1  15.82125   3.53755  15.26220
 511 1  15.52611   3.61273  12.95963
 512 1  15.42232   2.36436  11.22220
