LAMMPS (29 Oct 2020)
Reading data file ...
  orthogonal box = (0.0000000 0.0000000 0.0000000) to (17.712844 17.712844 17.712844)
  2 by 3 by 4 MPI processor grid
  reading atoms ...
  512 atoms
  read_data CPU = 0.005 seconds

*******************************************************************************

WELCOME TO n²p², A SOFTWARE PACKAGE FOR NEURAL NETWORK POTENTIALS!
------------------------------------------------------------------

n²p² version  (from git): v2.1.4-1-gb45aafc
             (version.h): v2.1.4
------------------------------------------------------------
Git branch              : master
Git revision            : b45aafc12292c43ea4f575379cb9fcaf5cf20a1d
Compile date/time       : Jun 16 2021 17:18:47
------------------------------------------------------------

Features/Flags:
------------------------------------------------------------
Symmetry function groups     : enabled
Symmetry function cache      : enabled
Timing function available    : available
Asymmetric polynomial SFs    : available
SF low neighbor number check : enabled
SF derivative memory layout  : reduced
MPI explicitly disabled      : no
------------------------------------------------------------

Please cite the following papers when publishing results obtained with n²p²:
-------------------------------------------------------------------------------
 * General citation for n²p² and the LAMMPS interface:

 Singraber, A.; Behler, J.; Dellago, C.
 Library-Based LAMMPS Implementation of High-Dimensional
 Neural Network Potentials.
 J. Chem. Theory Comput. 2019 15 (3), 1827–1840.
 https://doi.org/10.1021/acs.jctc.8b00770
-------------------------------------------------------------------------------
 * Additionally, if you use the NNP training features of n²p²:

 Singraber, A.; Morawietz, T.; Behler, J.; Dellago, C.
 Parallel Multistream Training of High-Dimensional Neural
 Network Potentials.
 J. Chem. Theory Comput. 2019, 15 (5), 3075–3092.
 https://doi.org/10.1021/acs.jctc.8b01092
-------------------------------------------------------------------------------
 * Additionally, if polynomial symmetry functions are used:

 Bircher, M. P.; Singraber, A.; Dellago, C.
 Improved Description of Atomic Environments Using Low-Cost
 Polynomial Functions with Compact Support.
 arXiv:2010.14414 [cond-mat, physics:physics] 2020.
 https://arxiv.org/abs/2010.14414
*******************************************************************************

*** SETUP: SETTINGS FILE ******************************************************

Settings file name: ../lammps/nnp/input.nn
Read 1128 lines.
Found 852 lines with keywords.
This settings file defines a short-range only NNP.
*******************************************************************************

*** SETUP: NORMALIZATION ******************************************************

Data set normalization is used.
Mean energy per atom     :  -2.9490687253024300E-01
Conversion factor energy :   1.3307681597740063E+03
Conversion factor length :   3.4249466430307962E+01

Atomic energy offsets are used in addition to data set normalization.
Offsets will be subtracted from reference energies BEFORE normalization is applied.
*******************************************************************************

*** SETUP: ELEMENT MAP ********************************************************

Number of element strings found: 3
Element  0:  H (  1)
Element  1:  C (  6)
Element  2:  O (  8)
*******************************************************************************

*** SETUP: ELEMENTS ***********************************************************

Number of elements is consistent: 3
Atomic energy offsets per element:
Element  0:  -3.75123083E-01
Element  1:  -5.33572749E+00
Element  2:  -1.58336174E+01
Energy offsets are automatically subtracted from reference energies.
*******************************************************************************

*** SETUP: CUTOFF FUNCTIONS ***************************************************

Parameter alpha for inner cutoff: 0.000000
Inner cutoff = Symmetry function cutoff * alpha
Equal cutoff function type for all symmetry functions:
CutoffFunction::CT_COS (1)
x := (r - rc * alpha) / (rc - rc * alpha)
f(x) = 1/2 * (cos(pi*x) + 1)
*******************************************************************************

*** SETUP: SYMMETRY FUNCTIONS *************************************************

Abbreviations:
--------------
ind .... Symmetry function index.
ec ..... Central atom element.
tp ..... Symmetry function type.
sbtp ... Symmetry function subtype (e.g. cutoff type).
e1 ..... Neighbor 1 element.
e2 ..... Neighbor 2 element.
eta .... Gaussian width eta.
rs/rl... Shift distance of Gaussian or left cutoff radius for polynomial.
angl.... Left cutoff angle for polynomial.
angr.... Right cutoff angle for polynomial.
la ..... Angle prefactor lambda.
zeta ... Angle term exponent zeta.
rc ..... Cutoff radius / right cutoff radius for polynomial.
a ...... Free parameter alpha (e.g. cutoff alpha).
ln ..... Line number in settings file.

Short range atomic symmetry functions element  H :
-------------------------------------------------------------------------------------------------
 ind ec tp sbtp e1 e2       eta      rs/rl         rc   angl   angr la zeta    a    ln
-------------------------------------------------------------------------------------------------
   1  H  2  ct1  H    6.944E-03  0.000E+00  1.200E+01                       0.00   156
   2  H  2  ct1  C    6.944E-03  0.000E+00  1.200E+01                       0.00   162
   3  H  2  ct1  O    6.944E-03  0.000E+00  1.200E+01                       0.00   168
   4  H  2  ct1  H    1.389E-02  0.000E+00  1.200E+01                       0.00   157
   5  H  2  ct1  C    1.389E-02  0.000E+00  1.200E+01                       0.00   163
   6  H  2  ct1  O    1.389E-02  0.000E+00  1.200E+01                       0.00   169
   7  H  2  ct1  H    2.778E-02  0.000E+00  1.200E+01                       0.00   158
   8  H  2  ct1  C    2.778E-02  0.000E+00  1.200E+01                       0.00   164
   9  H  2  ct1  O    2.778E-02  0.000E+00  1.200E+01                       0.00   170
  10  H  2  ct1  H    5.556E-02  0.000E+00  1.200E+01                       0.00   159
  11  H  2  ct1  C    5.556E-02  0.000E+00  1.200E+01                       0.00   165
  12  H  2  ct1  O    5.556E-02  0.000E+00  1.200E+01                       0.00   171
  13  H  2  ct1  H    9.168E-02  8.697E+00  1.200E+01                       0.00   653
  14  H  2  ct1  C    9.168E-02  8.697E+00  1.200E+01                       0.00   659
  15  H  2  ct1  O    9.168E-02  8.697E+00  1.200E+01                       0.00   665
  16  H  2  ct1  H    1.111E-01  0.000E+00  1.200E+01                       0.00   160
  17  H  2  ct1  C    1.111E-01  0.000E+00  1.200E+01                       0.00   166
  18  H  2  ct1  O    1.111E-01  0.000E+00  1.200E+01                       0.00   172
  19  H  2  ct1  H    1.745E-01  6.304E+00  1.200E+01                       0.00   652
  20  H  2  ct1  C    1.745E-01  6.304E+00  1.200E+01                       0.00   658
  21  H  2  ct1  O    1.745E-01  6.304E+00  1.200E+01                       0.00   664
  22  H  2  ct1  H    3.322E-01  4.569E+00  1.200E+01                       0.00   651
  23  H  2  ct1  C    3.322E-01  4.569E+00  1.200E+01                       0.00   657
  24  H  2  ct1  O    3.322E-01  4.569E+00  1.200E+01                       0.00   663
  25  H  2  ct1  H    6.325E-01  3.311E+00  1.200E+01                       0.00   650
  26  H  2  ct1  C    6.325E-01  3.311E+00  1.200E+01                       0.00   656
  27  H  2  ct1  O    6.325E-01  3.311E+00  1.200E+01                       0.00   662
  28  H  2  ct1  H    1.204E+00  2.400E+00  1.200E+01                       0.00   649
  29  H  2  ct1  C    1.204E+00  2.400E+00  1.200E+01                       0.00   655
  30  H  2  ct1  O    1.204E+00  2.400E+00  1.200E+01                       0.00   661
  31  H  3  ct1  H  H 6.944E-03  0.000E+00  1.200E+01               -1  1.0 0.00   225
  32  H  3  ct1  H  C 6.944E-03  0.000E+00  1.200E+01               -1  1.0 0.00   236
  33  H  3  ct1  H  O 6.944E-03  0.000E+00  1.200E+01               -1  1.0 0.00   247
  34  H  3  ct1  C  C 6.944E-03  0.000E+00  1.200E+01               -1  1.0 0.00   258
  35  H  3  ct1  C  O 6.944E-03  0.000E+00  1.200E+01               -1  1.0 0.00   269
  36  H  3  ct1  O  O 6.944E-03  0.000E+00  1.200E+01               -1  1.0 0.00   280
  37  H  3  ct1  H  H 6.944E-03  0.000E+00  1.200E+01                1  1.0 0.00   226
  38  H  3  ct1  H  C 6.944E-03  0.000E+00  1.200E+01                1  1.0 0.00   237
  39  H  3  ct1  H  O 6.944E-03  0.000E+00  1.200E+01                1  1.0 0.00   248
  40  H  3  ct1  C  C 6.944E-03  0.000E+00  1.200E+01                1  1.0 0.00   259
  41  H  3  ct1  C  O 6.944E-03  0.000E+00  1.200E+01                1  1.0 0.00   270
  42  H  3  ct1  O  O 6.944E-03  0.000E+00  1.200E+01                1  1.0 0.00   281
  43  H  3  ct1  H  H 1.389E-02  0.000E+00  1.200E+01               -1  1.0 0.00   227
  44  H  3  ct1  H  C 1.389E-02  0.000E+00  1.200E+01               -1  1.0 0.00   238
  45  H  3  ct1  H  O 1.389E-02  0.000E+00  1.200E+01               -1  1.0 0.00   249
  46  H  3  ct1  C  C 1.389E-02  0.000E+00  1.200E+01               -1  1.0 0.00   260
  47  H  3  ct1  C  O 1.389E-02  0.000E+00  1.200E+01               -1  1.0 0.00   271
  48  H  3  ct1  O  O 1.389E-02  0.000E+00  1.200E+01               -1  1.0 0.00   282
  49  H  3  ct1  H  H 1.389E-02  0.000E+00  1.200E+01                1  1.0 0.00   228
  50  H  3  ct1  H  C 1.389E-02  0.000E+00  1.200E+01                1  1.0 0.00   239
  51  H  3  ct1  H  O 1.389E-02  0.000E+00  1.200E+01                1  1.0 0.00   250
  52  H  3  ct1  C  C 1.389E-02  0.000E+00  1.200E+01                1  1.0 0.00   261
  53  H  3  ct1  C  O 1.389E-02  0.000E+00  1.200E+01                1  1.0 0.00   272
  54  H  3  ct1  O  O 1.389E-02  0.000E+00  1.200E+01                1  1.0 0.00   283
  55  H  3  ct1  H  H 2.778E-02  0.000E+00  1.200E+01               -1  1.0 0.00   229
  56  H  3  ct1  H  C 2.778E-02  0.000E+00  1.200E+01               -1  1.0 0.00   240
  57  H  3  ct1  H  O 2.778E-02  0.000E+00  1.200E+01               -1  1.0 0.00   251
  58  H  3  ct1  C  C 2.778E-02  0.000E+00  1.200E+01               -1  1.0 0.00   262
  59  H  3  ct1  C  O 2.778E-02  0.000E+00  1.200E+01               -1  1.0 0.00   273
  60  H  3  ct1  O  O 2.778E-02  0.000E+00  1.200E+01               -1  1.0 0.00   284
  61  H  3  ct1  H  H 2.778E-02  0.000E+00  1.200E+01                1  1.0 0.00   230
  62  H  3  ct1  H  C 2.778E-02  0.000E+00  1.200E+01                1  1.0 0.00   241
  63  H  3  ct1  H  O 2.778E-02  0.000E+00  1.200E+01                1  1.0 0.00   252
  64  H  3  ct1  C  C 2.778E-02  0.000E+00  1.200E+01                1  1.0 0.00   263
  65  H  3  ct1  C  O 2.778E-02  0.000E+00  1.200E+01                1  1.0 0.00   274
  66  H  3  ct1  O  O 2.778E-02  0.000E+00  1.200E+01                1  1.0 0.00   285
  67  H  3  ct1  H  H 5.556E-02  0.000E+00  1.200E+01               -1  1.0 0.00   231
  68  H  3  ct1  H  C 5.556E-02  0.000E+00  1.200E+01               -1  1.0 0.00   242
  69  H  3  ct1  H  O 5.556E-02  0.000E+00  1.200E+01               -1  1.0 0.00   253
  70  H  3  ct1  C  C 5.556E-02  0.000E+00  1.200E+01               -1  1.0 0.00   264
  71  H  3  ct1  C  O 5.556E-02  0.000E+00  1.200E+01               -1  1.0 0.00   275
  72  H  3  ct1  O  O 5.556E-02  0.000E+00  1.200E+01               -1  1.0 0.00   286
  73  H  3  ct1  H  H 5.556E-02  0.000E+00  1.200E+01                1  1.0 0.00   232
  74  H  3  ct1  H  C 5.556E-02  0.000E+00  1.200E+01                1  1.0 0.00   243
  75  H  3  ct1  H  O 5.556E-02  0.000E+00  1.200E+01                1  1.0 0.00   254
  76  H  3  ct1  C  C 5.556E-02  0.000E+00  1.200E+01                1  1.0 0.00   265
  77  H  3  ct1  C  O 5.556E-02  0.000E+00  1.200E+01                1  1.0 0.00   276
  78  H  3  ct1  O  O 5.556E-02  0.000E+00  1.200E+01                1  1.0 0.00   287
  79  H  3  ct1  H  H 9.168E-02  8.697E+00  1.200E+01               -1  1.0 0.00   726
  80  H  3  ct1  H  C 9.168E-02  8.697E+00  1.200E+01               -1  1.0 0.00   737
  81  H  3  ct1  H  O 9.168E-02  8.697E+00  1.200E+01               -1  1.0 0.00   748
  82  H  3  ct1  C  C 9.168E-02  8.697E+00  1.200E+01               -1  1.0 0.00   759
  83  H  3  ct1  C  O 9.168E-02  8.697E+00  1.200E+01               -1  1.0 0.00   770
  84  H  3  ct1  O  O 9.168E-02  8.697E+00  1.200E+01               -1  1.0 0.00   781
  85  H  3  ct1  H  H 9.168E-02  8.697E+00  1.200E+01                1  1.0 0.00   727
  86  H  3  ct1  H  C 9.168E-02  8.697E+00  1.200E+01                1  1.0 0.00   738
  87  H  3  ct1  H  O 9.168E-02  8.697E+00  1.200E+01                1  1.0 0.00   749
  88  H  3  ct1  C  C 9.168E-02  8.697E+00  1.200E+01                1  1.0 0.00   760
  89  H  3  ct1  C  O 9.168E-02  8.697E+00  1.200E+01                1  1.0 0.00   771
  90  H  3  ct1  O  O 9.168E-02  8.697E+00  1.200E+01                1  1.0 0.00   782
  91  H  3  ct1  H  H 1.111E-01  0.000E+00  1.200E+01               -1  1.0 0.00   233
  92  H  3  ct1  H  C 1.111E-01  0.000E+00  1.200E+01               -1  1.0 0.00   244
  93  H  3  ct1  H  O 1.111E-01  0.000E+00  1.200E+01               -1  1.0 0.00   255
  94  H  3  ct1  C  C 1.111E-01  0.000E+00  1.200E+01               -1  1.0 0.00   266
  95  H  3  ct1  C  O 1.111E-01  0.000E+00  1.200E+01               -1  1.0 0.00   277
  96  H  3  ct1  O  O 1.111E-01  0.000E+00  1.200E+01               -1  1.0 0.00   288
  97  H  3  ct1  H  H 1.111E-01  0.000E+00  1.200E+01                1  1.0 0.00   234
  98  H  3  ct1  H  C 1.111E-01  0.000E+00  1.200E+01                1  1.0 0.00   245
  99  H  3  ct1  H  O 1.111E-01  0.000E+00  1.200E+01                1  1.0 0.00   256
 100  H  3  ct1  C  C 1.111E-01  0.000E+00  1.200E+01                1  1.0 0.00   267
 101  H  3  ct1  C  O 1.111E-01  0.000E+00  1.200E+01                1  1.0 0.00   278
 102  H  3  ct1  O  O 1.111E-01  0.000E+00  1.200E+01                1  1.0 0.00   289
 103  H  3  ct1  H  H 1.745E-01  6.304E+00  1.200E+01               -1  1.0 0.00   724
 104  H  3  ct1  H  C 1.745E-01  6.304E+00  1.200E+01               -1  1.0 0.00   735
 105  H  3  ct1  H  O 1.745E-01  6.304E+00  1.200E+01               -1  1.0 0.00   746
 106  H  3  ct1  C  C 1.745E-01  6.304E+00  1.200E+01               -1  1.0 0.00   757
 107  H  3  ct1  C  O 1.745E-01  6.304E+00  1.200E+01               -1  1.0 0.00   768
 108  H  3  ct1  O  O 1.745E-01  6.304E+00  1.200E+01               -1  1.0 0.00   779
 109  H  3  ct1  H  H 1.745E-01  6.304E+00  1.200E+01                1  1.0 0.00   725
 110  H  3  ct1  H  C 1.745E-01  6.304E+00  1.200E+01                1  1.0 0.00   736
 111  H  3  ct1  H  O 1.745E-01  6.304E+00  1.200E+01                1  1.0 0.00   747
 112  H  3  ct1  C  C 1.745E-01  6.304E+00  1.200E+01                1  1.0 0.00   758
 113  H  3  ct1  C  O 1.745E-01  6.304E+00  1.200E+01                1  1.0 0.00   769
 114  H  3  ct1  O  O 1.745E-01  6.304E+00  1.200E+01                1  1.0 0.00   780
 115  H  3  ct1  H  H 3.322E-01  4.569E+00  1.200E+01               -1  1.0 0.00   722
 116  H  3  ct1  H  C 3.322E-01  4.569E+00  1.200E+01               -1  1.0 0.00   733
 117  H  3  ct1  H  O 3.322E-01  4.569E+00  1.200E+01               -1  1.0 0.00   744
 118  H  3  ct1  C  C 3.322E-01  4.569E+00  1.200E+01               -1  1.0 0.00   755
 119  H  3  ct1  C  O 3.322E-01  4.569E+00  1.200E+01               -1  1.0 0.00   766
 120  H  3  ct1  O  O 3.322E-01  4.569E+00  1.200E+01               -1  1.0 0.00   777
 121  H  3  ct1  H  H 3.322E-01  4.569E+00  1.200E+01                1  1.0 0.00   723
 122  H  3  ct1  H  C 3.322E-01  4.569E+00  1.200E+01                1  1.0 0.00   734
 123  H  3  ct1  H  O 3.322E-01  4.569E+00  1.200E+01                1  1.0 0.00   745
 124  H  3  ct1  C  C 3.322E-01  4.569E+00  1.200E+01                1  1.0 0.00   756
 125  H  3  ct1  C  O 3.322E-01  4.569E+00  1.200E+01                1  1.0 0.00   767
 126  H  3  ct1  O  O 3.322E-01  4.569E+00  1.200E+01                1  1.0 0.00   778
 127  H  3  ct1  H  H 6.325E-01  3.311E+00  1.200E+01               -1  1.0 0.00   720
 128  H  3  ct1  H  C 6.325E-01  3.311E+00  1.200E+01               -1  1.0 0.00   731
 129  H  3  ct1  H  O 6.325E-01  3.311E+00  1.200E+01               -1  1.0 0.00   742
 130  H  3  ct1  C  C 6.325E-01  3.311E+00  1.200E+01               -1  1.0 0.00   753
 131  H  3  ct1  C  O 6.325E-01  3.311E+00  1.200E+01               -1  1.0 0.00   764
 132  H  3  ct1  O  O 6.325E-01  3.311E+00  1.200E+01               -1  1.0 0.00   775
 133  H  3  ct1  H  H 6.325E-01  3.311E+00  1.200E+01                1  1.0 0.00   721
 134  H  3  ct1  H  C 6.325E-01  3.311E+00  1.200E+01                1  1.0 0.00   732
 135  H  3  ct1  H  O 6.325E-01  3.311E+00  1.200E+01                1  1.0 0.00   743
 136  H  3  ct1  C  C 6.325E-01  3.311E+00  1.200E+01                1  1.0 0.00   754
 137  H  3  ct1  C  O 6.325E-01  3.311E+00  1.200E+01                1  1.0 0.00   765
 138  H  3  ct1  O  O 6.325E-01  3.311E+00  1.200E+01                1  1.0 0.00   776
 139  H  3  ct1  H  H 1.204E+00  2.400E+00  1.200E+01               -1  1.0 0.00   718
 140  H  3  ct1  H  C 1.204E+00  2.400E+00  1.200E+01               -1  1.0 0.00   729
 141  H  3  ct1  H  O 1.204E+00  2.400E+00  1.200E+01               -1  1.0 0.00   740
 142  H  3  ct1  C  C 1.204E+00  2.400E+00  1.200E+01               -1  1.0 0.00   751
 143  H  3  ct1  C  O 1.204E+00  2.400E+00  1.200E+01               -1  1.0 0.00   762
 144  H  3  ct1  O  O 1.204E+00  2.400E+00  1.200E+01               -1  1.0 0.00   773
 145  H  3  ct1  H  H 1.204E+00  2.400E+00  1.200E+01                1  1.0 0.00   719
 146  H  3  ct1  H  C 1.204E+00  2.400E+00  1.200E+01                1  1.0 0.00   730
 147  H  3  ct1  H  O 1.204E+00  2.400E+00  1.200E+01                1  1.0 0.00   741
 148  H  3  ct1  C  C 1.204E+00  2.400E+00  1.200E+01                1  1.0 0.00   752
 149  H  3  ct1  C  O 1.204E+00  2.400E+00  1.200E+01                1  1.0 0.00   763
 150  H  9  ct1  H  H 6.944E-03  0.000E+00  1.200E+01               -1  1.0 0.00   438
 151  H  9  ct1  H  C 6.944E-03  0.000E+00  1.200E+01               -1  1.0 0.00   449
 152  H  9  ct1  H  O 6.944E-03  0.000E+00  1.200E+01               -1  1.0 0.00   460
 153  H  9  ct1  C  C 6.944E-03  0.000E+00  1.200E+01               -1  1.0 0.00   471
 154  H  9  ct1  C  O 6.944E-03  0.000E+00  1.200E+01               -1  1.0 0.00   482
 155  H  9  ct1  O  O 6.944E-03  0.000E+00  1.200E+01               -1  1.0 0.00   493
 156  H  9  ct1  H  H 6.944E-03  0.000E+00  1.200E+01                1  1.0 0.00   439
 157  H  9  ct1  H  C 6.944E-03  0.000E+00  1.200E+01                1  1.0 0.00   450
 158  H  9  ct1  H  O 6.944E-03  0.000E+00  1.200E+01                1  1.0 0.00   461
 159  H  9  ct1  C  C 6.944E-03  0.000E+00  1.200E+01                1  1.0 0.00   472
 160  H  9  ct1  C  O 6.944E-03  0.000E+00  1.200E+01                1  1.0 0.00   483
 161  H  9  ct1  O  O 6.944E-03  0.000E+00  1.200E+01                1  1.0 0.00   494
 162  H  9  ct1  H  H 1.389E-02  0.000E+00  1.200E+01               -1  1.0 0.00   440
 163  H  9  ct1  H  C 1.389E-02  0.000E+00  1.200E+01               -1  1.0 0.00   451
 164  H  9  ct1  H  O 1.389E-02  0.000E+00  1.200E+01               -1  1.0 0.00   462
 165  H  9  ct1  C  C 1.389E-02  0.000E+00  1.200E+01               -1  1.0 0.00   473
 166  H  9  ct1  C  O 1.389E-02  0.000E+00  1.200E+01               -1  1.0 0.00   484
 167  H  9  ct1  O  O 1.389E-02  0.000E+00  1.200E+01               -1  1.0 0.00   495
 168  H  9  ct1  H  H 1.389E-02  0.000E+00  1.200E+01                1  1.0 0.00   441
 169  H  9  ct1  H  C 1.389E-02  0.000E+00  1.200E+01                1  1.0 0.00   452
 170  H  9  ct1  H  O 1.389E-02  0.000E+00  1.200E+01                1  1.0 0.00   463
 171  H  9  ct1  C  C 1.389E-02  0.000E+00  1.200E+01                1  1.0 0.00   474
 172  H  9  ct1  C  O 1.389E-02  0.000E+00  1.200E+01                1  1.0 0.00   485
 173  H  9  ct1  O  O 1.389E-02  0.000E+00  1.200E+01                1  1.0 0.00   496
 174  H  9  ct1  H  H 2.778E-02  0.000E+00  1.200E+01               -1  1.0 0.00   442
 175  H  9  ct1  H  C 2.778E-02  0.000E+00  1.200E+01               -1  1.0 0.00   453
 176  H  9  ct1  H  O 2.778E-02  0.000E+00  1.200E+01               -1  1.0 0.00   464
 177  H  9  ct1  C  C 2.778E-02  0.000E+00  1.200E+01               -1  1.0 0.00   475
 178  H  9  ct1  C  O 2.778E-02  0.000E+00  1.200E+01               -1  1.0 0.00   486
 179  H  9  ct1  O  O 2.778E-02  0.000E+00  1.200E+01               -1  1.0 0.00   497
 180  H  9  ct1  H  H 2.778E-02  0.000E+00  1.200E+01                1  1.0 0.00   443
 181  H  9  ct1  H  C 2.778E-02  0.000E+00  1.200E+01                1  1.0 0.00   454
 182  H  9  ct1  H  O 2.778E-02  0.000E+00  1.200E+01                1  1.0 0.00   465
 183  H  9  ct1  C  C 2.778E-02  0.000E+00  1.200E+01                1  1.0 0.00   476
 184  H  9  ct1  C  O 2.778E-02  0.000E+00  1.200E+01                1  1.0 0.00   487
 185  H  9  ct1  O  O 2.778E-02  0.000E+00  1.200E+01                1  1.0 0.00   498
 186  H  9  ct1  H  H 5.556E-02  0.000E+00  1.200E+01               -1  1.0 0.00   444
 187  H  9  ct1  H  C 5.556E-02  0.000E+00  1.200E+01               -1  1.0 0.00   455
 188  H  9  ct1  H  O 5.556E-02  0.000E+00  1.200E+01               -1  1.0 0.00   466
 189  H  9  ct1  C  C 5.556E-02  0.000E+00  1.200E+01               -1  1.0 0.00   477
 190  H  9  ct1  C  O 5.556E-02  0.000E+00  1.200E+01               -1  1.0 0.00   488
 191  H  9  ct1  O  O 5.556E-02  0.000E+00  1.200E+01               -1  1.0 0.00   499
 192  H  9  ct1  H  H 5.556E-02  0.000E+00  1.200E+01                1  1.0 0.00   445
 193  H  9  ct1  H  C 5.556E-02  0.000E+00  1.200E+01                1  1.0 0.00   456
 194  H  9  ct1  H  O 5.556E-02  0.000E+00  1.200E+01                1  1.0 0.00   467
 195  H  9  ct1  C  C 5.556E-02  0.000E+00  1.200E+01                1  1.0 0.00   478
 196  H  9  ct1  C  O 5.556E-02  0.000E+00  1.200E+01                1  1.0 0.00   489
 197  H  9  ct1  O  O 5.556E-02  0.000E+00  1.200E+01                1  1.0 0.00   500
 198  H  9  ct1  H  H 9.168E-02  8.697E+00  1.200E+01               -1  1.0 0.00   939
 199  H  9  ct1  H  C 9.168E-02  8.697E+00  1.200E+01               -1  1.0 0.00   950
 200  H  9  ct1  H  O 9.168E-02  8.697E+00  1.200E+01               -1  1.0 0.00   961
 201  H  9  ct1  C  C 9.168E-02  8.697E+00  1.200E+01               -1  1.0 0.00   972
 202  H  9  ct1  C  O 9.168E-02  8.697E+00  1.200E+01               -1  1.0 0.00   983
 203  H  9  ct1  O  O 9.168E-02  8.697E+00  1.200E+01               -1  1.0 0.00   994
 204  H  9  ct1  H  H 9.168E-02  8.697E+00  1.200E+01                1  1.0 0.00   940
 205  H  9  ct1  H  C 9.168E-02  8.697E+00  1.200E+01                1  1.0 0.00   951
 206  H  9  ct1  H  O 9.168E-02  8.697E+00  1.200E+01                1  1.0 0.00   962
 207  H  9  ct1  C  C 9.168E-02  8.697E+00  1.200E+01                1  1.0 0.00   973
 208  H  9  ct1  C  O 9.168E-02  8.697E+00  1.200E+01                1  1.0 0.00   984
 209  H  9  ct1  O  O 9.168E-02  8.697E+00  1.200E+01                1  1.0 0.00   995
 210  H  9  ct1  H  H 1.111E-01  0.000E+00  1.200E+01               -1  1.0 0.00   446
 211  H  9  ct1  H  C 1.111E-01  0.000E+00  1.200E+01               -1  1.0 0.00   457
 212  H  9  ct1  H  O 1.111E-01  0.000E+00  1.200E+01               -1  1.0 0.00   468
 213  H  9  ct1  C  C 1.111E-01  0.000E+00  1.200E+01               -1  1.0 0.00   479
 214  H  9  ct1  C  O 1.111E-01  0.000E+00  1.200E+01               -1  1.0 0.00   490
 215  H  9  ct1  O  O 1.111E-01  0.000E+00  1.200E+01               -1  1.0 0.00   501
 216  H  9  ct1  H  H 1.111E-01  0.000E+00  1.200E+01                1  1.0 0.00   447
 217  H  9  ct1  H  C 1.111E-01  0.000E+00  1.200E+01                1  1.0 0.00   458
 218  H  9  ct1  H  O 1.111E-01  0.000E+00  1.200E+01                1  1.0 0.00   469
 219  H  9  ct1  C  C 1.111E-01  0.000E+00  1.200E+01                1  1.0 0.00   480
 220  H  9  ct1  C  O 1.111E-01  0.000E+00  1.200E+01                1  1.0 0.00   491
 221  H  9  ct1  O  O 1.111E-01  0.000E+00  1.200E+01                1  1.0 0.00   502
 222  H  9  ct1  H  H 1.745E-01  6.304E+00  1.200E+01               -1  1.0 0.00   937
 223  H  9  ct1  H  C 1.745E-01  6.304E+00  1.200E+01               -1  1.0 0.00   948
 224  H  9  ct1  H  O 1.745E-01  6.304E+00  1.200E+01               -1  1.0 0.00   959
 225  H  9  ct1  C  C 1.745E-01  6.304E+00  1.200E+01               -1  1.0 0.00   970
 226  H  9  ct1  C  O 1.745E-01  6.304E+00  1.200E+01               -1  1.0 0.00   981
 227  H  9  ct1  O  O 1.745E-01  6.304E+00  1.200E+01               -1  1.0 0.00   992
 228  H  9  ct1  H  H 1.745E-01  6.304E+00  1.200E+01                1  1.0 0.00   938
 229  H  9  ct1  H  C 1.745E-01  6.304E+00  1.200E+01                1  1.0 0.00   949
 230  H  9  ct1  H  O 1.745E-01  6.304E+00  1.200E+01                1  1.0 0.00   960
 231  H  9  ct1  C  C 1.745E-01  6.304E+00  1.200E+01                1  1.0 0.00   971
 232  H  9  ct1  C  O 1.745E-01  6.304E+00  1.200E+01                1  1.0 0.00   982
 233  H  9  ct1  O  O 1.745E-01  6.304E+00  1.200E+01                1  1.0 0.00   993
 234  H  9  ct1  H  H 3.322E-01  4.569E+00  1.200E+01               -1  1.0 0.00   935
 235  H  9  ct1  H  C 3.322E-01  4.569E+00  1.200E+01               -1  1.0 0.00   946
 236  H  9  ct1  H  O 3.322E-01  4.569E+00  1.200E+01               -1  1.0 0.00   957
 237  H  9  ct1  C  C 3.322E-01  4.569E+00  1.200E+01               -1  1.0 0.00   968
 238  H  9  ct1  C  O 3.322E-01  4.569E+00  1.200E+01               -1  1.0 0.00   979
 239  H  9  ct1  O  O 3.322E-01  4.569E+00  1.200E+01               -1  1.0 0.00   990
 240  H  9  ct1  H  H 3.322E-01  4.569E+00  1.200E+01                1  1.0 0.00   936
 241  H  9  ct1  H  C 3.322E-01  4.569E+00  1.200E+01                1  1.0 0.00   947
 242  H  9  ct1  H  O 3.322E-01  4.569E+00  1.200E+01                1  1.0 0.00   958
 243  H  9  ct1  C  C 3.322E-01  4.569E+00  1.200E+01                1  1.0 0.00   969
 244  H  9  ct1  C  O 3.322E-01  4.569E+00  1.200E+01                1  1.0 0.00   980
 245  H  9  ct1  O  O 3.322E-01  4.569E+00  1.200E+01                1  1.0 0.00   991
 246  H  9  ct1  H  H 6.325E-01  3.311E+00  1.200E+01               -1  1.0 0.00   933
 247  H  9  ct1  H  C 6.325E-01  3.311E+00  1.200E+01               -1  1.0 0.00   944
 248  H  9  ct1  H  O 6.325E-01  3.311E+00  1.200E+01               -1  1.0 0.00   955
 249  H  9  ct1  C  C 6.325E-01  3.311E+00  1.200E+01               -1  1.0 0.00   966
 250  H  9  ct1  C  O 6.325E-01  3.311E+00  1.200E+01               -1  1.0 0.00   977
 251  H  9  ct1  O  O 6.325E-01  3.311E+00  1.200E+01               -1  1.0 0.00   988
 252  H  9  ct1  H  H 6.325E-01  3.311E+00  1.200E+01                1  1.0 0.00   934
 253  H  9  ct1  H  C 6.325E-01  3.311E+00  1.200E+01                1  1.0 0.00   945
 254  H  9  ct1  H  O 6.325E-01  3.311E+00  1.200E+01                1  1.0 0.00   956
 255  H  9  ct1  C  C 6.325E-01  3.311E+00  1.200E+01                1  1.0 0.00   967
 256  H  9  ct1  C  O 6.325E-01  3.311E+00  1.200E+01                1  1.0 0.00   978
 257  H  9  ct1  O  O 6.325E-01  3.311E+00  1.200E+01                1  1.0 0.00   989
 258  H  9  ct1  H  H 1.204E+00  2.400E+00  1.200E+01               -1  1.0 0.00   931
 259  H  9  ct1  H  C 1.204E+00  2.400E+00  1.200E+01               -1  1.0 0.00   942
 260  H  9  ct1  H  O 1.204E+00  2.400E+00  1.200E+01               -1  1.0 0.00   953
 261  H  9  ct1  C  C 1.204E+00  2.400E+00  1.200E+01               -1  1.0 0.00   964
 262  H  9  ct1  C  O 1.204E+00  2.400E+00  1.200E+01               -1  1.0 0.00   975
 263  H  9  ct1  O  O 1.204E+00  2.400E+00  1.200E+01               -1  1.0 0.00   986
 264  H  9  ct1  H  H 1.204E+00  2.400E+00  1.200E+01                1  1.0 0.00   932
 265  H  9  ct1  H  C 1.204E+00  2.400E+00  1.200E+01                1  1.0 0.00   943
 266  H  9  ct1  H  O 1.204E+00  2.400E+00  1.200E+01                1  1.0 0.00   954
 267  H  9  ct1  C  C 1.204E+00  2.400E+00  1.200E+01                1  1.0 0.00   965
 268  H  9  ct1  C  O 1.204E+00  2.400E+00  1.200E+01                1  1.0 0.00   976
 269  H  9  ct1  O  O 1.204E+00  2.400E+00  1.200E+01                1  1.0 0.00   987
-------------------------------------------------------------------------------------------------
Short range atomic symmetry functions element  C :
-------------------------------------------------------------------------------------------------
 ind ec tp sbtp e1 e2       eta      rs/rl         rc   angl   angr la zeta    a    ln
-------------------------------------------------------------------------------------------------
   1  C  2  ct1  H    6.944E-03  0.000E+00  1.200E+01                       0.00   174
   2  C  2  ct1  C    6.944E-03  0.000E+00  1.200E+01                       0.00   180
   3  C  2  ct1  O    6.944E-03  0.000E+00  1.200E+01                       0.00   186
   4  C  2  ct1  H    1.389E-02  0.000E+00  1.200E+01                       0.00   175
   5  C  2  ct1  C    1.389E-02  0.000E+00  1.200E+01                       0.00   181
   6  C  2  ct1  O    1.389E-02  0.000E+00  1.200E+01                       0.00   187
   7  C  2  ct1  H    2.778E-02  0.000E+00  1.200E+01                       0.00   176
   8  C  2  ct1  C    2.778E-02  0.000E+00  1.200E+01                       0.00   182
   9  C  2  ct1  O    2.778E-02  0.000E+00  1.200E+01                       0.00   188
  10  C  2  ct1  H    5.556E-02  0.000E+00  1.200E+01                       0.00   177
  11  C  2  ct1  C    5.556E-02  0.000E+00  1.200E+01                       0.00   183
  12  C  2  ct1  O    5.556E-02  0.000E+00  1.200E+01                       0.00   189
  13  C  2  ct1  H    9.168E-02  8.697E+00  1.200E+01                       0.00   671
  14  C  2  ct1  C    9.168E-02  8.697E+00  1.200E+01                       0.00   677
  15  C  2  ct1  O    9.168E-02  8.697E+00  1.200E+01                       0.00   683
  16  C  2  ct1  H    1.111E-01  0.000E+00  1.200E+01                       0.00   178
  17  C  2  ct1  C    1.111E-01  0.000E+00  1.200E+01                       0.00   184
  18  C  2  ct1  O    1.111E-01  0.000E+00  1.200E+01                       0.00   190
  19  C  2  ct1  H    1.745E-01  6.304E+00  1.200E+01                       0.00   670
  20  C  2  ct1  C    1.745E-01  6.304E+00  1.200E+01                       0.00   676
  21  C  2  ct1  O    1.745E-01  6.304E+00  1.200E+01                       0.00   682
  22  C  2  ct1  H    3.322E-01  4.569E+00  1.200E+01                       0.00   669
  23  C  2  ct1  C    3.322E-01  4.569E+00  1.200E+01                       0.00   675
  24  C  2  ct1  O    3.322E-01  4.569E+00  1.200E+01                       0.00   681
  25  C  2  ct1  H    6.325E-01  3.311E+00  1.200E+01                       0.00   668
  26  C  2  ct1  C    6.325E-01  3.311E+00  1.200E+01                       0.00   674
  27  C  2  ct1  O    6.325E-01  3.311E+00  1.200E+01                       0.00   680
  28  C  2  ct1  H    1.204E+00  2.400E+00  1.200E+01                       0.00   667
  29  C  2  ct1  C    1.204E+00  2.400E+00  1.200E+01                       0.00   673
  30  C  2  ct1  O    1.204E+00  2.400E+00  1.200E+01                       0.00   679
  31  C  3  ct1  H  H 6.944E-03  0.000E+00  1.200E+01               -1  1.0 0.00   291
  32  C  3  ct1  H  C 6.944E-03  0.000E+00  1.200E+01               -1  1.0 0.00   302
  33  C  3  ct1  H  O 6.944E-03  0.000E+00  1.200E+01               -1  1.0 0.00   313
  34  C  3  ct1  C  C 6.944E-03  0.000E+00  1.200E+01               -1  1.0 0.00   324
  35  C  3  ct1  C  O 6.944E-03  0.000E+00  1.200E+01               -1  1.0 0.00   335
  36  C  3  ct1  O  O 6.944E-03  0.000E+00  1.200E+01               -1  1.0 0.00   346
  37  C  3  ct1  H  H 6.944E-03  0.000E+00  1.200E+01                1  1.0 0.00   292
  38  C  3  ct1  H  C 6.944E-03  0.000E+00  1.200E+01                1  1.0 0.00   303
  39  C  3  ct1  H  O 6.944E-03  0.000E+00  1.200E+01                1  1.0 0.00   314
  40  C  3  ct1  C  C 6.944E-03  0.000E+00  1.200E+01                1  1.0 0.00   325
  41  C  3  ct1  C  O 6.944E-03  0.000E+00  1.200E+01                1  1.0 0.00   336
  42  C  3  ct1  O  O 6.944E-03  0.000E+00  1.200E+01                1  1.0 0.00   347
  43  C  3  ct1  H  H 1.389E-02  0.000E+00  1.200E+01               -1  1.0 0.00   293
  44  C  3  ct1  H  C 1.389E-02  0.000E+00  1.200E+01               -1  1.0 0.00   304
  45  C  3  ct1  H  O 1.389E-02  0.000E+00  1.200E+01               -1  1.0 0.00   315
  46  C  3  ct1  C  C 1.389E-02  0.000E+00  1.200E+01               -1  1.0 0.00   326
  47  C  3  ct1  C  O 1.389E-02  0.000E+00  1.200E+01               -1  1.0 0.00   337
  48  C  3  ct1  O  O 1.389E-02  0.000E+00  1.200E+01               -1  1.0 0.00   348
  49  C  3  ct1  H  H 1.389E-02  0.000E+00  1.200E+01                1  1.0 0.00   294
  50  C  3  ct1  H  C 1.389E-02  0.000E+00  1.200E+01                1  1.0 0.00   305
  51  C  3  ct1  H  O 1.389E-02  0.000E+00  1.200E+01                1  1.0 0.00   316
  52  C  3  ct1  C  C 1.389E-02  0.000E+00  1.200E+01                1  1.0 0.00   327
  53  C  3  ct1  C  O 1.389E-02  0.000E+00  1.200E+01                1  1.0 0.00   338
  54  C  3  ct1  O  O 1.389E-02  0.000E+00  1.200E+01                1  1.0 0.00   349
  55  C  3  ct1  H  H 2.778E-02  0.000E+00  1.200E+01               -1  1.0 0.00   295
  56  C  3  ct1  H  C 2.778E-02  0.000E+00  1.200E+01               -1  1.0 0.00   306
  57  C  3  ct1  H  O 2.778E-02  0.000E+00  1.200E+01               -1  1.0 0.00   317
  58  C  3  ct1  C  C 2.778E-02  0.000E+00  1.200E+01               -1  1.0 0.00   328
  59  C  3  ct1  C  O 2.778E-02  0.000E+00  1.200E+01               -1  1.0 0.00   339
  60  C  3  ct1  O  O 2.778E-02  0.000E+00  1.200E+01               -1  1.0 0.00   350
  61  C  3  ct1  H  H 2.778E-02  0.000E+00  1.200E+01                1  1.0 0.00   296
  62  C  3  ct1  H  C 2.778E-02  0.000E+00  1.200E+01                1  1.0 0.00   307
  63  C  3  ct1  H  O 2.778E-02  0.000E+00  1.200E+01                1  1.0 0.00   318
  64  C  3  ct1  C  C 2.778E-02  0.000E+00  1.200E+01                1  1.0 0.00   329
  65  C  3  ct1  C  O 2.778E-02  0.000E+00  1.200E+01                1  1.0 0.00   340
  66  C  3  ct1  O  O 2.778E-02  0.000E+00  1.200E+01                1  1.0 0.00   351
  67  C  3  ct1  H  H 5.556E-02  0.000E+00  1.200E+01               -1  1.0 0.00   297
  68  C  3  ct1  H  C 5.556E-02  0.000E+00  1.200E+01               -1  1.0 0.00   308
  69  C  3  ct1  H  O 5.556E-02  0.000E+00  1.200E+01               -1  1.0 0.00   319
  70  C  3  ct1  C  C 5.556E-02  0.000E+00  1.200E+01               -1  1.0 0.00   330
  71  C  3  ct1  C  O 5.556E-02  0.000E+00  1.200E+01               -1  1.0 0.00   341
  72  C  3  ct1  O  O 5.556E-02  0.000E+00  1.200E+01               -1  1.0 0.00   352
  73  C  3  ct1  H  H 5.556E-02  0.000E+00  1.200E+01                1  1.0 0.00   298
  74  C  3  ct1  H  C 5.556E-02  0.000E+00  1.200E+01                1  1.0 0.00   309
  75  C  3  ct1  H  O 5.556E-02  0.000E+00  1.200E+01                1  1.0 0.00   320
  76  C  3  ct1  C  C 5.556E-02  0.000E+00  1.200E+01                1  1.0 0.00   331
  77  C  3  ct1  C  O 5.556E-02  0.000E+00  1.200E+01                1  1.0 0.00   342
  78  C  3  ct1  O  O 5.556E-02  0.000E+00  1.200E+01                1  1.0 0.00   353
  79  C  3  ct1  H  H 9.168E-02  8.697E+00  1.200E+01               -1  1.0 0.00   792
  80  C  3  ct1  H  C 9.168E-02  8.697E+00  1.200E+01               -1  1.0 0.00   803
  81  C  3  ct1  H  O 9.168E-02  8.697E+00  1.200E+01               -1  1.0 0.00   814
  82  C  3  ct1  C  C 9.168E-02  8.697E+00  1.200E+01               -1  1.0 0.00   825
  83  C  3  ct1  C  O 9.168E-02  8.697E+00  1.200E+01               -1  1.0 0.00   836
  84  C  3  ct1  O  O 9.168E-02  8.697E+00  1.200E+01               -1  1.0 0.00   847
  85  C  3  ct1  H  H 9.168E-02  8.697E+00  1.200E+01                1  1.0 0.00   793
  86  C  3  ct1  H  C 9.168E-02  8.697E+00  1.200E+01                1  1.0 0.00   804
  87  C  3  ct1  H  O 9.168E-02  8.697E+00  1.200E+01                1  1.0 0.00   815
  88  C  3  ct1  C  C 9.168E-02  8.697E+00  1.200E+01                1  1.0 0.00   826
  89  C  3  ct1  C  O 9.168E-02  8.697E+00  1.200E+01                1  1.0 0.00   837
  90  C  3  ct1  O  O 9.168E-02  8.697E+00  1.200E+01                1  1.0 0.00   848
  91  C  3  ct1  H  H 1.111E-01  0.000E+00  1.200E+01               -1  1.0 0.00   299
  92  C  3  ct1  H  C 1.111E-01  0.000E+00  1.200E+01               -1  1.0 0.00   310
  93  C  3  ct1  H  O 1.111E-01  0.000E+00  1.200E+01               -1  1.0 0.00   321
  94  C  3  ct1  C  C 1.111E-01  0.000E+00  1.200E+01               -1  1.0 0.00   332
  95  C  3  ct1  C  O 1.111E-01  0.000E+00  1.200E+01               -1  1.0 0.00   343
  96  C  3  ct1  O  O 1.111E-01  0.000E+00  1.200E+01               -1  1.0 0.00   354
  97  C  3  ct1  H  H 1.111E-01  0.000E+00  1.200E+01                1  1.0 0.00   300
  98  C  3  ct1  H  C 1.111E-01  0.000E+00  1.200E+01                1  1.0 0.00   311
  99  C  3  ct1  H  O 1.111E-01  0.000E+00  1.200E+01                1  1.0 0.00   322
 100  C  3  ct1  C  C 1.111E-01  0.000E+00  1.200E+01                1  1.0 0.00   333
 101  C  3  ct1  C  O 1.111E-01  0.000E+00  1.200E+01                1  1.0 0.00   344
 102  C  3  ct1  O  O 1.111E-01  0.000E+00  1.200E+01                1  1.0 0.00   355
 103  C  3  ct1  H  H 1.745E-01  6.304E+00  1.200E+01               -1  1.0 0.00   790
 104  C  3  ct1  H  C 1.745E-01  6.304E+00  1.200E+01               -1  1.0 0.00   801
 105  C  3  ct1  H  O 1.745E-01  6.304E+00  1.200E+01               -1  1.0 0.00   812
 106  C  3  ct1  C  C 1.745E-01  6.304E+00  1.200E+01               -1  1.0 0.00   823
 107  C  3  ct1  C  O 1.745E-01  6.304E+00  1.200E+01               -1  1.0 0.00   834
 108  C  3  ct1  O  O 1.745E-01  6.304E+00  1.200E+01               -1  1.0 0.00   845
 109  C  3  ct1  H  H 1.745E-01  6.304E+00  1.200E+01                1  1.0 0.00   791
 110  C  3  ct1  H  C 1.745E-01  6.304E+00  1.200E+01                1  1.0 0.00   802
 111  C  3  ct1  H  O 1.745E-01  6.304E+00  1.200E+01                1  1.0 0.00   813
 112  C  3  ct1  C  C 1.745E-01  6.304E+00  1.200E+01                1  1.0 0.00   824
 113  C  3  ct1  C  O 1.745E-01  6.304E+00  1.200E+01                1  1.0 0.00   835
 114  C  3  ct1  O  O 1.745E-01  6.304E+00  1.200E+01                1  1.0 0.00   846
 115  C  3  ct1  H  H 3.322E-01  4.569E+00  1.200E+01               -1  1.0 0.00   788
 116  C  3  ct1  H  C 3.322E-01  4.569E+00  1.200E+01               -1  1.0 0.00   799
 117  C  3  ct1  H  O 3.322E-01  4.569E+00  1.200E+01               -1  1.0 0.00   810
 118  C  3  ct1  C  C 3.322E-01  4.569E+00  1.200E+01               -1  1.0 0.00   821
 119  C  3  ct1  C  O 3.322E-01  4.569E+00  1.200E+01               -1  1.0 0.00   832
 120  C  3  ct1  O  O 3.322E-01  4.569E+00  1.200E+01               -1  1.0 0.00   843
 121  C  3  ct1  H  H 3.322E-01  4.569E+00  1.200E+01                1  1.0 0.00   789
 122  C  3  ct1  H  C 3.322E-01  4.569E+00  1.200E+01                1  1.0 0.00   800
 123  C  3  ct1  H  O 3.322E-01  4.569E+00  1.200E+01                1  1.0 0.00   811
 124  C  3  ct1  C  C 3.322E-01  4.569E+00  1.200E+01                1  1.0 0.00   822
 125  C  3  ct1  C  O 3.322E-01  4.569E+00  1.200E+01                1  1.0 0.00   833
 126  C  3  ct1  O  O 3.322E-01  4.569E+00  1.200E+01                1  1.0 0.00   844
 127  C  3  ct1  H  H 6.325E-01  3.311E+00  1.200E+01               -1  1.0 0.00   786
 128  C  3  ct1  H  C 6.325E-01  3.311E+00  1.200E+01               -1  1.0 0.00   797
 129  C  3  ct1  H  O 6.325E-01  3.311E+00  1.200E+01               -1  1.0 0.00   808
 130  C  3  ct1  C  C 6.325E-01  3.311E+00  1.200E+01               -1  1.0 0.00   819
 131  C  3  ct1  C  O 6.325E-01  3.311E+00  1.200E+01               -1  1.0 0.00   830
 132  C  3  ct1  O  O 6.325E-01  3.311E+00  1.200E+01               -1  1.0 0.00   841
 133  C  3  ct1  H  H 6.325E-01  3.311E+00  1.200E+01                1  1.0 0.00   787
 134  C  3  ct1  H  C 6.325E-01  3.311E+00  1.200E+01                1  1.0 0.00   798
 135  C  3  ct1  H  O 6.325E-01  3.311E+00  1.200E+01                1  1.0 0.00   809
 136  C  3  ct1  C  C 6.325E-01  3.311E+00  1.200E+01                1  1.0 0.00   820
 137  C  3  ct1  C  O 6.325E-01  3.311E+00  1.200E+01                1  1.0 0.00   831
 138  C  3  ct1  O  O 6.325E-01  3.311E+00  1.200E+01                1  1.0 0.00   842
 139  C  3  ct1  H  H 1.204E+00  2.400E+00  1.200E+01               -1  1.0 0.00   784
 140  C  3  ct1  H  C 1.204E+00  2.400E+00  1.200E+01               -1  1.0 0.00   795
 141  C  3  ct1  H  O 1.204E+00  2.400E+00  1.200E+01               -1  1.0 0.00   806
 142  C  3  ct1  C  C 1.204E+00  2.400E+00  1.200E+01               -1  1.0 0.00   817
 143  C  3  ct1  C  O 1.204E+00  2.400E+00  1.200E+01               -1  1.0 0.00   828
 144  C  3  ct1  H  H 1.204E+00  2.400E+00  1.200E+01                1  1.0 0.00   785
 145  C  3  ct1  H  C 1.204E+00  2.400E+00  1.200E+01                1  1.0 0.00   796
 146  C  3  ct1  H  O 1.204E+00  2.400E+00  1.200E+01                1  1.0 0.00   807
 147  C  3  ct1  C  C 1.204E+00  2.400E+00  1.200E+01                1  1.0 0.00   818
 148  C  3  ct1  C  O 1.204E+00  2.400E+00  1.200E+01                1  1.0 0.00   829
 149  C  9  ct1  H  H 6.944E-03  0.000E+00  1.200E+01               -1  1.0 0.00   504
 150  C  9  ct1  H  C 6.944E-03  0.000E+00  1.200E+01               -1  1.0 0.00   515
 151  C  9  ct1  H  O 6.944E-03  0.000E+00  1.200E+01               -1  1.0 0.00   526
 152  C  9  ct1  C  C 6.944E-03  0.000E+00  1.200E+01               -1  1.0 0.00   537
 153  C  9  ct1  C  O 6.944E-03  0.000E+00  1.200E+01               -1  1.0 0.00   548
 154  C  9  ct1  O  O 6.944E-03  0.000E+00  1.200E+01               -1  1.0 0.00   559
 155  C  9  ct1  H  H 6.944E-03  0.000E+00  1.200E+01                1  1.0 0.00   505
 156  C  9  ct1  H  C 6.944E-03  0.000E+00  1.200E+01                1  1.0 0.00   516
 157  C  9  ct1  H  O 6.944E-03  0.000E+00  1.200E+01                1  1.0 0.00   527
 158  C  9  ct1  C  C 6.944E-03  0.000E+00  1.200E+01                1  1.0 0.00   538
 159  C  9  ct1  C  O 6.944E-03  0.000E+00  1.200E+01                1  1.0 0.00   549
 160  C  9  ct1  O  O 6.944E-03  0.000E+00  1.200E+01                1  1.0 0.00   560
 161  C  9  ct1  H  H 1.389E-02  0.000E+00  1.200E+01               -1  1.0 0.00   506
 162  C  9  ct1  H  C 1.389E-02  0.000E+00  1.200E+01               -1  1.0 0.00   517
 163  C  9  ct1  H  O 1.389E-02  0.000E+00  1.200E+01               -1  1.0 0.00   528
 164  C  9  ct1  C  C 1.389E-02  0.000E+00  1.200E+01               -1  1.0 0.00   539
 165  C  9  ct1  C  O 1.389E-02  0.000E+00  1.200E+01               -1  1.0 0.00   550
 166  C  9  ct1  O  O 1.389E-02  0.000E+00  1.200E+01               -1  1.0 0.00   561
 167  C  9  ct1  H  H 1.389E-02  0.000E+00  1.200E+01                1  1.0 0.00   507
 168  C  9  ct1  H  C 1.389E-02  0.000E+00  1.200E+01                1  1.0 0.00   518
 169  C  9  ct1  H  O 1.389E-02  0.000E+00  1.200E+01                1  1.0 0.00   529
 170  C  9  ct1  C  C 1.389E-02  0.000E+00  1.200E+01                1  1.0 0.00   540
 171  C  9  ct1  C  O 1.389E-02  0.000E+00  1.200E+01                1  1.0 0.00   551
 172  C  9  ct1  O  O 1.389E-02  0.000E+00  1.200E+01                1  1.0 0.00   562
 173  C  9  ct1  H  H 2.778E-02  0.000E+00  1.200E+01               -1  1.0 0.00   508
 174  C  9  ct1  H  C 2.778E-02  0.000E+00  1.200E+01               -1  1.0 0.00   519
 175  C  9  ct1  H  O 2.778E-02  0.000E+00  1.200E+01               -1  1.0 0.00   530
 176  C  9  ct1  C  C 2.778E-02  0.000E+00  1.200E+01               -1  1.0 0.00   541
 177  C  9  ct1  C  O 2.778E-02  0.000E+00  1.200E+01               -1  1.0 0.00   552
 178  C  9  ct1  O  O 2.778E-02  0.000E+00  1.200E+01               -1  1.0 0.00   563
 179  C  9  ct1  H  H 2.778E-02  0.000E+00  1.200E+01                1  1.0 0.00   509
 180  C  9  ct1  H  C 2.778E-02  0.000E+00  1.200E+01                1  1.0 0.00   520
 181  C  9  ct1  H  O 2.778E-02  0.000E+00  1.200E+01                1  1.0 0.00   531
 182  C  9  ct1  C  C 2.778E-02  0.000E+00  1.200E+01                1  1.0 0.00   542
 183  C  9  ct1  C  O 2.778E-02  0.000E+00  1.200E+01                1  1.0 0.00   553
 184  C  9  ct1  O  O 2.778E-02  0.000E+00  1.200E+01                1  1.0 0.00   564
 185  C  9  ct1  H  H 5.556E-02  0.000E+00  1.200E+01               -1  1.0 0.00   510
 186  C  9  ct1  H  C 5.556E-02  0.000E+00  1.200E+01               -1  1.0 0.00   521
 187  C  9  ct1  H  O 5.556E-02  0.000E+00  1.200E+01               -1  1.0 0.00   532
 188  C  9  ct1  C  C 5.556E-02  0.000E+00  1.200E+01               -1  1.0 0.00   543
 189  C  9  ct1  C  O 5.556E-02  0.000E+00  1.200E+01               -1  1.0 0.00   554
 190  C  9  ct1  O  O 5.556E-02  0.000E+00  1.200E+01               -1  1.0 0.00   565
 191  C  9  ct1  H  H 5.556E-02  0.000E+00  1.200E+01                1  1.0 0.00   511
 192  C  9  ct1  H  C 5.556E-02  0.000E+00  1.200E+01                1  1.0 0.00   522
 193  C  9  ct1  H  O 5.556E-02  0.000E+00  1.200E+01                1  1.0 0.00   533
 194  C  9  ct1  C  C 5.556E-02  0.000E+00  1.200E+01                1  1.0 0.00   544
 195  C  9  ct1  C  O 5.556E-02  0.000E+00  1.200E+01                1  1.0 0.00   555
 196  C  9  ct1  O  O 5.556E-02  0.000E+00  1.200E+01                1  1.0 0.00   566
 197  C  9  ct1  H  H 9.168E-02  8.697E+00  1.200E+01               -1  1.0 0.00  1005
 198  C  9  ct1  H  C 9.168E-02  8.697E+00  1.200E+01               -1  1.0 0.00  1016
 199  C  9  ct1  H  O 9.168E-02  8.697E+00  1.200E+01               -1  1.0 0.00  1027
 200  C  9  ct1  C  C 9.168E-02  8.697E+00  1.200E+01               -1  1.0 0.00  1038
 201  C  9  ct1  C  O 9.168E-02  8.697E+00  1.200E+01               -1  1.0 0.00  1049
 202  C  9  ct1  O  O 9.168E-02  8.697E+00  1.200E+01               -1  1.0 0.00  1060
 203  C  9  ct1  H  H 9.168E-02  8.697E+00  1.200E+01                1  1.0 0.00  1006
 204  C  9  ct1  H  C 9.168E-02  8.697E+00  1.200E+01                1  1.0 0.00  1017
 205  C  9  ct1  H  O 9.168E-02  8.697E+00  1.200E+01                1  1.0 0.00  1028
 206  C  9  ct1  C  C 9.168E-02  8.697E+00  1.200E+01                1  1.0 0.00  1039
 207  C  9  ct1  C  O 9.168E-02  8.697E+00  1.200E+01                1  1.0 0.00  1050
 208  C  9  ct1  O  O 9.168E-02  8.697E+00  1.200E+01                1  1.0 0.00  1061
 209  C  9  ct1  H  H 1.111E-01  0.000E+00  1.200E+01               -1  1.0 0.00   512
 210  C  9  ct1  H  C 1.111E-01  0.000E+00  1.200E+01               -1  1.0 0.00   523
 211  C  9  ct1  H  O 1.111E-01  0.000E+00  1.200E+01               -1  1.0 0.00   534
 212  C  9  ct1  C  C 1.111E-01  0.000E+00  1.200E+01               -1  1.0 0.00   545
 213  C  9  ct1  C  O 1.111E-01  0.000E+00  1.200E+01               -1  1.0 0.00   556
 214  C  9  ct1  O  O 1.111E-01  0.000E+00  1.200E+01               -1  1.0 0.00   567
 215  C  9  ct1  H  H 1.111E-01  0.000E+00  1.200E+01                1  1.0 0.00   513
 216  C  9  ct1  H  C 1.111E-01  0.000E+00  1.200E+01                1  1.0 0.00   524
 217  C  9  ct1  H  O 1.111E-01  0.000E+00  1.200E+01                1  1.0 0.00   535
 218  C  9  ct1  C  C 1.111E-01  0.000E+00  1.200E+01                1  1.0 0.00   546
 219  C  9  ct1  C  O 1.111E-01  0.000E+00  1.200E+01                1  1.0 0.00   557
 220  C  9  ct1  O  O 1.111E-01  0.000E+00  1.200E+01                1  1.0 0.00   568
 221  C  9  ct1  H  H 1.745E-01  6.304E+00  1.200E+01               -1  1.0 0.00  1003
 222  C  9  ct1  H  C 1.745E-01  6.304E+00  1.200E+01               -1  1.0 0.00  1014
 223  C  9  ct1  H  O 1.745E-01  6.304E+00  1.200E+01               -1  1.0 0.00  1025
 224  C  9  ct1  C  C 1.745E-01  6.304E+00  1.200E+01               -1  1.0 0.00  1036
 225  C  9  ct1  C  O 1.745E-01  6.304E+00  1.200E+01               -1  1.0 0.00  1047
 226  C  9  ct1  O  O 1.745E-01  6.304E+00  1.200E+01               -1  1.0 0.00  1058
 227  C  9  ct1  H  H 1.745E-01  6.304E+00  1.200E+01                1  1.0 0.00  1004
 228  C  9  ct1  H  C 1.745E-01  6.304E+00  1.200E+01                1  1.0 0.00  1015
 229  C  9  ct1  H  O 1.745E-01  6.304E+00  1.200E+01                1  1.0 0.00  1026
 230  C  9  ct1  C  C 1.745E-01  6.304E+00  1.200E+01                1  1.0 0.00  1037
 231  C  9  ct1  C  O 1.745E-01  6.304E+00  1.200E+01                1  1.0 0.00  1048
 232  C  9  ct1  O  O 1.745E-01  6.304E+00  1.200E+01                1  1.0 0.00  1059
 233  C  9  ct1  H  H 3.322E-01  4.569E+00  1.200E+01               -1  1.0 0.00  1001
 234  C  9  ct1  H  C 3.322E-01  4.569E+00  1.200E+01               -1  1.0 0.00  1012
 235  C  9  ct1  H  O 3.322E-01  4.569E+00  1.200E+01               -1  1.0 0.00  1023
 236  C  9  ct1  C  C 3.322E-01  4.569E+00  1.200E+01               -1  1.0 0.00  1034
 237  C  9  ct1  C  O 3.322E-01  4.569E+00  1.200E+01               -1  1.0 0.00  1045
 238  C  9  ct1  O  O 3.322E-01  4.569E+00  1.200E+01               -1  1.0 0.00  1056
 239  C  9  ct1  H  H 3.322E-01  4.569E+00  1.200E+01                1  1.0 0.00  1002
 240  C  9  ct1  H  C 3.322E-01  4.569E+00  1.200E+01                1  1.0 0.00  1013
 241  C  9  ct1  H  O 3.322E-01  4.569E+00  1.200E+01                1  1.0 0.00  1024
 242  C  9  ct1  C  C 3.322E-01  4.569E+00  1.200E+01                1  1.0 0.00  1035
 243  C  9  ct1  C  O 3.322E-01  4.569E+00  1.200E+01                1  1.0 0.00  1046
 244  C  9  ct1  O  O 3.322E-01  4.569E+00  1.200E+01                1  1.0 0.00  1057
 245  C  9  ct1  H  H 6.325E-01  3.311E+00  1.200E+01               -1  1.0 0.00   999
 246  C  9  ct1  H  C 6.325E-01  3.311E+00  1.200E+01               -1  1.0 0.00  1010
 247  C  9  ct1  H  O 6.325E-01  3.311E+00  1.200E+01               -1  1.0 0.00  1021
 248  C  9  ct1  C  C 6.325E-01  3.311E+00  1.200E+01               -1  1.0 0.00  1032
 249  C  9  ct1  C  O 6.325E-01  3.311E+00  1.200E+01               -1  1.0 0.00  1043
 250  C  9  ct1  O  O 6.325E-01  3.311E+00  1.200E+01               -1  1.0 0.00  1054
 251  C  9  ct1  H  H 6.325E-01  3.311E+00  1.200E+01                1  1.0 0.00  1000
 252  C  9  ct1  H  C 6.325E-01  3.311E+00  1.200E+01                1  1.0 0.00  1011
 253  C  9  ct1  H  O 6.325E-01  3.311E+00  1.200E+01                1  1.0 0.00  1022
 254  C  9  ct1  C  C 6.325E-01  3.311E+00  1.200E+01                1  1.0 0.00  1033
 255  C  9  ct1  C  O 6.325E-01  3.311E+00  1.200E+01                1  1.0 0.00  1044
 256  C  9  ct1  O  O 6.325E-01  3.311E+00  1.200E+01                1  1.0 0.00  1055
 257  C  9  ct1  H  H 1.204E+00  2.400E+00  1.200E+01               -1  1.0 0.00   997
 258  C  9  ct1  H  C 1.204E+00  2.400E+00  1.200E+01               -1  1.0 0.00  1008
 259  C  9  ct1  H  O 1.204E+00  2.400E+00  1.200E+01               -1  1.0 0.00  1019
 260  C  9  ct1  C  C 1.204E+00  2.400E+00  1.200E+01               -1  1.0 0.00  1030
 261  C  9  ct1  C  O 1.204E+00  2.400E+00  1.200E+01               -1  1.0 0.00  1041
 262  C  9  ct1  H  H 1.204E+00  2.400E+00  1.200E+01                1  1.0 0.00   998
 263  C  9  ct1  H  C 1.204E+00  2.400E+00  1.200E+01                1  1.0 0.00  1009
 264  C  9  ct1  H  O 1.204E+00  2.400E+00  1.200E+01                1  1.0 0.00  1020
 265  C  9  ct1  C  C 1.204E+00  2.400E+00  1.200E+01                1  1.0 0.00  1031
 266  C  9  ct1  C  O 1.204E+00  2.400E+00  1.200E+01                1  1.0 0.00  1042
-------------------------------------------------------------------------------------------------
Short range atomic symmetry functions element  O :
-------------------------------------------------------------------------------------------------
 ind ec tp sbtp e1 e2       eta      rs/rl         rc   angl   angr la zeta    a    ln
-------------------------------------------------------------------------------------------------
   1  O  2  ct1  H    6.944E-03  0.000E+00  1.200E+01                       0.00   192
   2  O  2  ct1  C    6.944E-03  0.000E+00  1.200E+01                       0.00   198
   3  O  2  ct1  O    6.944E-03  0.000E+00  1.200E+01                       0.00   204
   4  O  2  ct1  H    1.389E-02  0.000E+00  1.200E+01                       0.00   193
   5  O  2  ct1  C    1.389E-02  0.000E+00  1.200E+01                       0.00   199
   6  O  2  ct1  O    1.389E-02  0.000E+00  1.200E+01                       0.00   205
   7  O  2  ct1  H    2.778E-02  0.000E+00  1.200E+01                       0.00   194
   8  O  2  ct1  C    2.778E-02  0.000E+00  1.200E+01                       0.00   200
   9  O  2  ct1  O    2.778E-02  0.000E+00  1.200E+01                       0.00   206
  10  O  2  ct1  H    5.556E-02  0.000E+00  1.200E+01                       0.00   195
  11  O  2  ct1  C    5.556E-02  0.000E+00  1.200E+01                       0.00   201
  12  O  2  ct1  O    5.556E-02  0.000E+00  1.200E+01                       0.00   207
  13  O  2  ct1  H    9.168E-02  8.697E+00  1.200E+01                       0.00   689
  14  O  2  ct1  C    9.168E-02  8.697E+00  1.200E+01                       0.00   695
  15  O  2  ct1  O    9.168E-02  8.697E+00  1.200E+01                       0.00   701
  16  O  2  ct1  H    1.111E-01  0.000E+00  1.200E+01                       0.00   196
  17  O  2  ct1  C    1.111E-01  0.000E+00  1.200E+01                       0.00   202
  18  O  2  ct1  O    1.111E-01  0.000E+00  1.200E+01                       0.00   208
  19  O  2  ct1  H    1.745E-01  6.304E+00  1.200E+01                       0.00   688
  20  O  2  ct1  C    1.745E-01  6.304E+00  1.200E+01                       0.00   694
  21  O  2  ct1  O    1.745E-01  6.304E+00  1.200E+01                       0.00   700
  22  O  2  ct1  H    3.322E-01  4.569E+00  1.200E+01                       0.00   687
  23  O  2  ct1  C    3.322E-01  4.569E+00  1.200E+01                       0.00   693
  24  O  2  ct1  O    3.322E-01  4.569E+00  1.200E+01                       0.00   699
  25  O  2  ct1  H    6.325E-01  3.311E+00  1.200E+01                       0.00   686
  26  O  2  ct1  C    6.325E-01  3.311E+00  1.200E+01                       0.00   692
  27  O  2  ct1  O    6.325E-01  3.311E+00  1.200E+01                       0.00   698
  28  O  2  ct1  H    1.204E+00  2.400E+00  1.200E+01                       0.00   685
  29  O  2  ct1  C    1.204E+00  2.400E+00  1.200E+01                       0.00   691
  30  O  2  ct1  O    1.204E+00  2.400E+00  1.200E+01                       0.00   697
  31  O  3  ct1  H  H 6.944E-03  0.000E+00  1.200E+01               -1  1.0 0.00   357
  32  O  3  ct1  H  C 6.944E-03  0.000E+00  1.200E+01               -1  1.0 0.00   368
  33  O  3  ct1  H  O 6.944E-03  0.000E+00  1.200E+01               -1  1.0 0.00   379
  34  O  3  ct1  C  C 6.944E-03  0.000E+00  1.200E+01               -1  1.0 0.00   390
  35  O  3  ct1  C  O 6.944E-03  0.000E+00  1.200E+01               -1  1.0 0.00   401
  36  O  3  ct1  O  O 6.944E-03  0.000E+00  1.200E+01               -1  1.0 0.00   412
  37  O  3  ct1  H  H 6.944E-03  0.000E+00  1.200E+01                1  1.0 0.00   358
  38  O  3  ct1  H  C 6.944E-03  0.000E+00  1.200E+01                1  1.0 0.00   369
  39  O  3  ct1  H  O 6.944E-03  0.000E+00  1.200E+01                1  1.0 0.00   380
  40  O  3  ct1  C  C 6.944E-03  0.000E+00  1.200E+01                1  1.0 0.00   391
  41  O  3  ct1  C  O 6.944E-03  0.000E+00  1.200E+01                1  1.0 0.00   402
  42  O  3  ct1  O  O 6.944E-03  0.000E+00  1.200E+01                1  1.0 0.00   413
  43  O  3  ct1  H  H 1.389E-02  0.000E+00  1.200E+01               -1  1.0 0.00   359
  44  O  3  ct1  H  C 1.389E-02  0.000E+00  1.200E+01               -1  1.0 0.00   370
  45  O  3  ct1  H  O 1.389E-02  0.000E+00  1.200E+01               -1  1.0 0.00   381
  46  O  3  ct1  C  C 1.389E-02  0.000E+00  1.200E+01               -1  1.0 0.00   392
  47  O  3  ct1  C  O 1.389E-02  0.000E+00  1.200E+01               -1  1.0 0.00   403
  48  O  3  ct1  O  O 1.389E-02  0.000E+00  1.200E+01               -1  1.0 0.00   414
  49  O  3  ct1  H  H 1.389E-02  0.000E+00  1.200E+01                1  1.0 0.00   360
  50  O  3  ct1  H  C 1.389E-02  0.000E+00  1.200E+01                1  1.0 0.00   371
  51  O  3  ct1  H  O 1.389E-02  0.000E+00  1.200E+01                1  1.0 0.00   382
  52  O  3  ct1  C  C 1.389E-02  0.000E+00  1.200E+01                1  1.0 0.00   393
  53  O  3  ct1  C  O 1.389E-02  0.000E+00  1.200E+01                1  1.0 0.00   404
  54  O  3  ct1  O  O 1.389E-02  0.000E+00  1.200E+01                1  1.0 0.00   415
  55  O  3  ct1  H  H 2.778E-02  0.000E+00  1.200E+01               -1  1.0 0.00   361
  56  O  3  ct1  H  C 2.778E-02  0.000E+00  1.200E+01               -1  1.0 0.00   372
  57  O  3  ct1  H  O 2.778E-02  0.000E+00  1.200E+01               -1  1.0 0.00   383
  58  O  3  ct1  C  C 2.778E-02  0.000E+00  1.200E+01               -1  1.0 0.00   394
  59  O  3  ct1  C  O 2.778E-02  0.000E+00  1.200E+01               -1  1.0 0.00   405
  60  O  3  ct1  O  O 2.778E-02  0.000E+00  1.200E+01               -1  1.0 0.00   416
  61  O  3  ct1  H  H 2.778E-02  0.000E+00  1.200E+01                1  1.0 0.00   362
  62  O  3  ct1  H  C 2.778E-02  0.000E+00  1.200E+01                1  1.0 0.00   373
  63  O  3  ct1  H  O 2.778E-02  0.000E+00  1.200E+01                1  1.0 0.00   384
  64  O  3  ct1  C  C 2.778E-02  0.000E+00  1.200E+01                1  1.0 0.00   395
  65  O  3  ct1  C  O 2.778E-02  0.000E+00  1.200E+01                1  1.0 0.00   406
  66  O  3  ct1  O  O 2.778E-02  0.000E+00  1.200E+01                1  1.0 0.00   417
  67  O  3  ct1  H  H 5.556E-02  0.000E+00  1.200E+01               -1  1.0 0.00   363
  68  O  3  ct1  H  C 5.556E-02  0.000E+00  1.200E+01               -1  1.0 0.00   374
  69  O  3  ct1  H  O 5.556E-02  0.000E+00  1.200E+01               -1  1.0 0.00   385
  70  O  3  ct1  C  C 5.556E-02  0.000E+00  1.200E+01               -1  1.0 0.00   396
  71  O  3  ct1  C  O 5.556E-02  0.000E+00  1.200E+01               -1  1.0 0.00   407
  72  O  3  ct1  O  O 5.556E-02  0.000E+00  1.200E+01               -1  1.0 0.00   418
  73  O  3  ct1  H  H 5.556E-02  0.000E+00  1.200E+01                1  1.0 0.00   364
  74  O  3  ct1  H  C 5.556E-02  0.000E+00  1.200E+01                1  1.0 0.00   375
  75  O  3  ct1  H  O 5.556E-02  0.000E+00  1.200E+01                1  1.0 0.00   386
  76  O  3  ct1  C  C 5.556E-02  0.000E+00  1.200E+01                1  1.0 0.00   397
  77  O  3  ct1  C  O 5.556E-02  0.000E+00  1.200E+01                1  1.0 0.00   408
  78  O  3  ct1  O  O 5.556E-02  0.000E+00  1.200E+01                1  1.0 0.00   419
  79  O  3  ct1  H  H 9.168E-02  8.697E+00  1.200E+01               -1  1.0 0.00   858
  80  O  3  ct1  H  C 9.168E-02  8.697E+00  1.200E+01               -1  1.0 0.00   869
  81  O  3  ct1  H  O 9.168E-02  8.697E+00  1.200E+01               -1  1.0 0.00   880
  82  O  3  ct1  C  C 9.168E-02  8.697E+00  1.200E+01               -1  1.0 0.00   891
  83  O  3  ct1  C  O 9.168E-02  8.697E+00  1.200E+01               -1  1.0 0.00   902
  84  O  3  ct1  O  O 9.168E-02  8.697E+00  1.200E+01               -1  1.0 0.00   913
  85  O  3  ct1  H  H 9.168E-02  8.697E+00  1.200E+01                1  1.0 0.00   859
  86  O  3  ct1  H  C 9.168E-02  8.697E+00  1.200E+01                1  1.0 0.00   870
  87  O  3  ct1  H  O 9.168E-02  8.697E+00  1.200E+01                1  1.0 0.00   881
  88  O  3  ct1  C  C 9.168E-02  8.697E+00  1.200E+01                1  1.0 0.00   892
  89  O  3  ct1  C  O 9.168E-02  8.697E+00  1.200E+01                1  1.0 0.00   903
  90  O  3  ct1  O  O 9.168E-02  8.697E+00  1.200E+01                1  1.0 0.00   914
  91  O  3  ct1  H  H 1.111E-01  0.000E+00  1.200E+01               -1  1.0 0.00   365
  92  O  3  ct1  H  C 1.111E-01  0.000E+00  1.200E+01               -1  1.0 0.00   376
  93  O  3  ct1  H  O 1.111E-01  0.000E+00  1.200E+01               -1  1.0 0.00   387
  94  O  3  ct1  C  C 1.111E-01  0.000E+00  1.200E+01               -1  1.0 0.00   398
  95  O  3  ct1  C  O 1.111E-01  0.000E+00  1.200E+01               -1  1.0 0.00   409
  96  O  3  ct1  H  H 1.111E-01  0.000E+00  1.200E+01                1  1.0 0.00   366
  97  O  3  ct1  H  C 1.111E-01  0.000E+00  1.200E+01                1  1.0 0.00   377
  98  O  3  ct1  H  O 1.111E-01  0.000E+00  1.200E+01                1  1.0 0.00   388
  99  O  3  ct1  C  C 1.111E-01  0.000E+00  1.200E+01                1  1.0 0.00   399
 100  O  3  ct1  C  O 1.111E-01  0.000E+00  1.200E+01                1  1.0 0.00   410
 101  O  3  ct1  O  O 1.111E-01  0.000E+00  1.200E+01                1  1.0 0.00   421
 102  O  3  ct1  H  H 1.745E-01  6.304E+00  1.200E+01               -1  1.0 0.00   856
 103  O  3  ct1  H  C 1.745E-01  6.304E+00  1.200E+01               -1  1.0 0.00   867
 104  O  3  ct1  H  O 1.745E-01  6.304E+00  1.200E+01               -1  1.0 0.00   878
 105  O  3  ct1  C  C 1.745E-01  6.304E+00  1.200E+01               -1  1.0 0.00   889
 106  O  3  ct1  C  O 1.745E-01  6.304E+00  1.200E+01               -1  1.0 0.00   900
 107  O  3  ct1  O  O 1.745E-01  6.304E+00  1.200E+01               -1  1.0 0.00   911
 108  O  3  ct1  H  H 1.745E-01  6.304E+00  1.200E+01                1  1.0 0.00   857
 109  O  3  ct1  H  C 1.745E-01  6.304E+00  1.200E+01                1  1.0 0.00   868
 110  O  3  ct1  H  O 1.745E-01  6.304E+00  1.200E+01                1  1.0 0.00   879
 111  O  3  ct1  C  C 1.745E-01  6.304E+00  1.200E+01                1  1.0 0.00   890
 112  O  3  ct1  C  O 1.745E-01  6.304E+00  1.200E+01                1  1.0 0.00   901
 113  O  3  ct1  O  O 1.745E-01  6.304E+00  1.200E+01                1  1.0 0.00   912
 114  O  3  ct1  H  H 3.322E-01  4.569E+00  1.200E+01               -1  1.0 0.00   854
 115  O  3  ct1  H  C 3.322E-01  4.569E+00  1.200E+01               -1  1.0 0.00   865
 116  O  3  ct1  H  O 3.322E-01  4.569E+00  1.200E+01               -1  1.0 0.00   876
 117  O  3  ct1  C  C 3.322E-01  4.569E+00  1.200E+01               -1  1.0 0.00   887
 118  O  3  ct1  C  O 3.322E-01  4.569E+00  1.200E+01               -1  1.0 0.00   898
 119  O  3  ct1  O  O 3.322E-01  4.569E+00  1.200E+01               -1  1.0 0.00   909
 120  O  3  ct1  H  H 3.322E-01  4.569E+00  1.200E+01                1  1.0 0.00   855
 121  O  3  ct1  H  C 3.322E-01  4.569E+00  1.200E+01                1  1.0 0.00   866
 122  O  3  ct1  H  O 3.322E-01  4.569E+00  1.200E+01                1  1.0 0.00   877
 123  O  3  ct1  C  C 3.322E-01  4.569E+00  1.200E+01                1  1.0 0.00   888
 124  O  3  ct1  C  O 3.322E-01  4.569E+00  1.200E+01                1  1.0 0.00   899
 125  O  3  ct1  O  O 3.322E-01  4.569E+00  1.200E+01                1  1.0 0.00   910
 126  O  3  ct1  H  H 6.325E-01  3.311E+00  1.200E+01               -1  1.0 0.00   852
 127  O  3  ct1  H  C 6.325E-01  3.311E+00  1.200E+01               -1  1.0 0.00   863
 128  O  3  ct1  H  O 6.325E-01  3.311E+00  1.200E+01               -1  1.0 0.00   874
 129  O  3  ct1  C  C 6.325E-01  3.311E+00  1.200E+01               -1  1.0 0.00   885
 130  O  3  ct1  C  O 6.325E-01  3.311E+00  1.200E+01               -1  1.0 0.00   896
 131  O  3  ct1  O  O 6.325E-01  3.311E+00  1.200E+01               -1  1.0 0.00   907
 132  O  3  ct1  H  H 6.325E-01  3.311E+00  1.200E+01                1  1.0 0.00   853
 133  O  3  ct1  H  C 6.325E-01  3.311E+00  1.200E+01                1  1.0 0.00   864
 134  O  3  ct1  H  O 6.325E-01  3.311E+00  1.200E+01                1  1.0 0.00   875
 135  O  3  ct1  C  C 6.325E-01  3.311E+00  1.200E+01                1  1.0 0.00   886
 136  O  3  ct1  C  O 6.325E-01  3.311E+00  1.200E+01                1  1.0 0.00   897
 137  O  3  ct1  O  O 6.325E-01  3.311E+00  1.200E+01                1  1.0 0.00   908
 138  O  3  ct1  H  H 1.204E+00  2.400E+00  1.200E+01               -1  1.0 0.00   850
 139  O  3  ct1  H  C 1.204E+00  2.400E+00  1.200E+01               -1  1.0 0.00   861
 140  O  3  ct1  C  C 1.204E+00  2.400E+00  1.200E+01               -1  1.0 0.00   883
 141  O  3  ct1  H  H 1.204E+00  2.400E+00  1.200E+01                1  1.0 0.00   851
 142  O  3  ct1  H  C 1.204E+00  2.400E+00  1.200E+01                1  1.0 0.00   862
 143  O  3  ct1  H  O 1.204E+00  2.400E+00  1.200E+01                1  1.0 0.00   873
 144  O  3  ct1  C  C 1.204E+00  2.400E+00  1.200E+01                1  1.0 0.00   884
 145  O  9  ct1  H  H 6.944E-03  0.000E+00  1.200E+01               -1  1.0 0.00   570
 146  O  9  ct1  H  C 6.944E-03  0.000E+00  1.200E+01               -1  1.0 0.00   581
 147  O  9  ct1  H  O 6.944E-03  0.000E+00  1.200E+01               -1  1.0 0.00   592
 148  O  9  ct1  C  C 6.944E-03  0.000E+00  1.200E+01               -1  1.0 0.00   603
 149  O  9  ct1  C  O 6.944E-03  0.000E+00  1.200E+01               -1  1.0 0.00   614
 150  O  9  ct1  O  O 6.944E-03  0.000E+00  1.200E+01               -1  1.0 0.00   625
 151  O  9  ct1  H  H 6.944E-03  0.000E+00  1.200E+01                1  1.0 0.00   571
 152  O  9  ct1  H  C 6.944E-03  0.000E+00  1.200E+01                1  1.0 0.00   582
 153  O  9  ct1  H  O 6.944E-03  0.000E+00  1.200E+01                1  1.0 0.00   593
 154  O  9  ct1  C  C 6.944E-03  0.000E+00  1.200E+01                1  1.0 0.00   604
 155  O  9  ct1  C  O 6.944E-03  0.000E+00  1.200E+01                1  1.0 0.00   615
 156  O  9  ct1  O  O 6.944E-03  0.000E+00  1.200E+01                1  1.0 0.00   626
 157  O  9  ct1  H  H 1.389E-02  0.000E+00  1.200E+01               -1  1.0 0.00   572
 158  O  9  ct1  H  C 1.389E-02  0.000E+00  1.200E+01               -1  1.0 0.00   583
 159  O  9  ct1  H  O 1.389E-02  0.000E+00  1.200E+01               -1  1.0 0.00   594
 160  O  9  ct1  C  C 1.389E-02  0.000E+00  1.200E+01               -1  1.0 0.00   605
 161  O  9  ct1  C  O 1.389E-02  0.000E+00  1.200E+01               -1  1.0 0.00   616
 162  O  9  ct1  O  O 1.389E-02  0.000E+00  1.200E+01               -1  1.0 0.00   627
 163  O  9  ct1  H  H 1.389E-02  0.000E+00  1.200E+01                1  1.0 0.00   573
 164  O  9  ct1  H  C 1.389E-02  0.000E+00  1.200E+01                1  1.0 0.00   584
 165  O  9  ct1  H  O 1.389E-02  0.000E+00  1.200E+01                1  1.0 0.00   595
 166  O  9  ct1  C  C 1.389E-02  0.000E+00  1.200E+01                1  1.0 0.00   606
 167  O  9  ct1  C  O 1.389E-02  0.000E+00  1.200E+01                1  1.0 0.00   617
 168  O  9  ct1  O  O 1.389E-02  0.000E+00  1.200E+01                1  1.0 0.00   628
 169  O  9  ct1  H  H 2.778E-02  0.000E+00  1.200E+01               -1  1.0 0.00   574
 170  O  9  ct1  H  C 2.778E-02  0.000E+00  1.200E+01               -1  1.0 0.00   585
 171  O  9  ct1  H  O 2.778E-02  0.000E+00  1.200E+01               -1  1.0 0.00   596
 172  O  9  ct1  C  C 2.778E-02  0.000E+00  1.200E+01               -1  1.0 0.00   607
 173  O  9  ct1  C  O 2.778E-02  0.000E+00  1.200E+01               -1  1.0 0.00   618
 174  O  9  ct1  O  O 2.778E-02  0.000E+00  1.200E+01               -1  1.0 0.00   629
 175  O  9  ct1  H  H 2.778E-02  0.000E+00  1.200E+01                1  1.0 0.00   575
 176  O  9  ct1  H  C 2.778E-02  0.000E+00  1.200E+01                1  1.0 0.00   586
 177  O  9  ct1  H  O 2.778E-02  0.000E+00  1.200E+01                1  1.0 0.00   597
 178  O  9  ct1  C  C 2.778E-02  0.000E+00  1.200E+01                1  1.0 0.00   608
 179  O  9  ct1  C  O 2.778E-02  0.000E+00  1.200E+01                1  1.0 0.00   619
 180  O  9  ct1  O  O 2.778E-02  0.000E+00  1.200E+01                1  1.0 0.00   630
 181  O  9  ct1  H  H 5.556E-02  0.000E+00  1.200E+01               -1  1.0 0.00   576
 182  O  9  ct1  H  C 5.556E-02  0.000E+00  1.200E+01               -1  1.0 0.00   587
 183  O  9  ct1  H  O 5.556E-02  0.000E+00  1.200E+01               -1  1.0 0.00   598
 184  O  9  ct1  C  C 5.556E-02  0.000E+00  1.200E+01               -1  1.0 0.00   609
 185  O  9  ct1  C  O 5.556E-02  0.000E+00  1.200E+01               -1  1.0 0.00   620
 186  O  9  ct1  O  O 5.556E-02  0.000E+00  1.200E+01               -1  1.0 0.00   631
 187  O  9  ct1  H  H 5.556E-02  0.000E+00  1.200E+01                1  1.0 0.00   577
 188  O  9  ct1  H  C 5.556E-02  0.000E+00  1.200E+01                1  1.0 0.00   588
 189  O  9  ct1  H  O 5.556E-02  0.000E+00  1.200E+01                1  1.0 0.00   599
 190  O  9  ct1  C  C 5.556E-02  0.000E+00  1.200E+01                1  1.0 0.00   610
 191  O  9  ct1  C  O 5.556E-02  0.000E+00  1.200E+01                1  1.0 0.00   621
 192  O  9  ct1  O  O 5.556E-02  0.000E+00  1.200E+01                1  1.0 0.00   632
 193  O  9  ct1  H  H 9.168E-02  8.697E+00  1.200E+01               -1  1.0 0.00  1071
 194  O  9  ct1  H  C 9.168E-02  8.697E+00  1.200E+01               -1  1.0 0.00  1082
 195  O  9  ct1  H  O 9.168E-02  8.697E+00  1.200E+01               -1  1.0 0.00  1093
 196  O  9  ct1  C  C 9.168E-02  8.697E+00  1.200E+01               -1  1.0 0.00  1104
 197  O  9  ct1  C  O 9.168E-02  8.697E+00  1.200E+01               -1  1.0 0.00  1115
 198  O  9  ct1  O  O 9.168E-02  8.697E+00  1.200E+01               -1  1.0 0.00  1126
 199  O  9  ct1  H  H 9.168E-02  8.697E+00  1.200E+01                1  1.0 0.00  1072
 200  O  9  ct1  H  C 9.168E-02  8.697E+00  1.200E+01                1  1.0 0.00  1083
 201  O  9  ct1  H  O 9.168E-02  8.697E+00  1.200E+01                1  1.0 0.00  1094
 202  O  9  ct1  C  C 9.168E-02  8.697E+00  1.200E+01                1  1.0 0.00  1105
 203  O  9  ct1  C  O 9.168E-02  8.697E+00  1.200E+01                1  1.0 0.00  1116
 204  O  9  ct1  O  O 9.168E-02  8.697E+00  1.200E+01                1  1.0 0.00  1127
 205  O  9  ct1  H  H 1.111E-01  0.000E+00  1.200E+01               -1  1.0 0.00   578
 206  O  9  ct1  H  C 1.111E-01  0.000E+00  1.200E+01               -1  1.0 0.00   589
 207  O  9  ct1  H  O 1.111E-01  0.000E+00  1.200E+01               -1  1.0 0.00   600
 208  O  9  ct1  C  C 1.111E-01  0.000E+00  1.200E+01               -1  1.0 0.00   611
 209  O  9  ct1  C  O 1.111E-01  0.000E+00  1.200E+01               -1  1.0 0.00   622
 210  O  9  ct1  O  O 1.111E-01  0.000E+00  1.200E+01               -1  1.0 0.00   633
 211  O  9  ct1  H  H 1.111E-01  0.000E+00  1.200E+01                1  1.0 0.00   579
 212  O  9  ct1  H  C 1.111E-01  0.000E+00  1.200E+01                1  1.0 0.00   590
 213  O  9  ct1  H  O 1.111E-01  0.000E+00  1.200E+01                1  1.0 0.00   601
 214  O  9  ct1  C  C 1.111E-01  0.000E+00  1.200E+01                1  1.0 0.00   612
 215  O  9  ct1  C  O 1.111E-01  0.000E+00  1.200E+01                1  1.0 0.00   623
 216  O  9  ct1  O  O 1.111E-01  0.000E+00  1.200E+01                1  1.0 0.00   634
 217  O  9  ct1  H  H 1.745E-01  6.304E+00  1.200E+01               -1  1.0 0.00  1069
 218  O  9  ct1  H  C 1.745E-01  6.304E+00  1.200E+01               -1  1.0 0.00  1080
 219  O  9  ct1  H  O 1.745E-01  6.304E+00  1.200E+01               -1  1.0 0.00  1091
 220  O  9  ct1  C  C 1.745E-01  6.304E+00  1.200E+01               -1  1.0 0.00  1102
 221  O  9  ct1  C  O 1.745E-01  6.304E+00  1.200E+01               -1  1.0 0.00  1113
 222  O  9  ct1  O  O 1.745E-01  6.304E+00  1.200E+01               -1  1.0 0.00  1124
 223  O  9  ct1  H  H 1.745E-01  6.304E+00  1.200E+01                1  1.0 0.00  1070
 224  O  9  ct1  H  C 1.745E-01  6.304E+00  1.200E+01                1  1.0 0.00  1081
 225  O  9  ct1  H  O 1.745E-01  6.304E+00  1.200E+01                1  1.0 0.00  1092
 226  O  9  ct1  C  C 1.745E-01  6.304E+00  1.200E+01                1  1.0 0.00  1103
 227  O  9  ct1  C  O 1.745E-01  6.304E+00  1.200E+01                1  1.0 0.00  1114
 228  O  9  ct1  O  O 1.745E-01  6.304E+00  1.200E+01                1  1.0 0.00  1125
 229  O  9  ct1  H  H 3.322E-01  4.569E+00  1.200E+01               -1  1.0 0.00  1067
 230  O  9  ct1  H  C 3.322E-01  4.569E+00  1.200E+01               -1  1.0 0.00  1078
 231  O  9  ct1  H  O 3.322E-01  4.569E+00  1.200E+01               -1  1.0 0.00  1089
 232  O  9  ct1  C  C 3.322E-01  4.569E+00  1.200E+01               -1  1.0 0.00  1100
 233  O  9  ct1  C  O 3.322E-01  4.569E+00  1.200E+01               -1  1.0 0.00  1111
 234  O  9  ct1  O  O 3.322E-01  4.569E+00  1.200E+01               -1  1.0 0.00  1122
 235  O  9  ct1  H  H 3.322E-01  4.569E+00  1.200E+01                1  1.0 0.00  1068
 236  O  9  ct1  H  C 3.322E-01  4.569E+00  1.200E+01                1  1.0 0.00  1079
 237  O  9  ct1  H  O 3.322E-01  4.569E+00  1.200E+01                1  1.0 0.00  1090
 238  O  9  ct1  C  C 3.322E-01  4.569E+00  1.200E+01                1  1.0 0.00  1101
 239  O  9  ct1  C  O 3.322E-01  4.569E+00  1.200E+01                1  1.0 0.00  1112
 240  O  9  ct1  O  O 3.322E-01  4.569E+00  1.200E+01                1  1.0 0.00  1123
 241  O  9  ct1  H  H 6.325E-01  3.311E+00  1.200E+01               -1  1.0 0.00  1065
 242  O  9  ct1  H  C 6.325E-01  3.311E+00  1.200E+01               -1  1.0 0.00  1076
 243  O  9  ct1  H  O 6.325E-01  3.311E+00  1.200E+01               -1  1.0 0.00  1087
 244  O  9  ct1  C  C 6.325E-01  3.311E+00  1.200E+01               -1  1.0 0.00  1098
 245  O  9  ct1  C  O 6.325E-01  3.311E+00  1.200E+01               -1  1.0 0.00  1109
 246  O  9  ct1  O  O 6.325E-01  3.311E+00  1.200E+01               -1  1.0 0.00  1120
 247  O  9  ct1  H  H 6.325E-01  3.311E+00  1.200E+01                1  1.0 0.00  1066
 248  O  9  ct1  H  C 6.325E-01  3.311E+00  1.200E+01                1  1.0 0.00  1077
 249  O  9  ct1  H  O 6.325E-01  3.311E+00  1.200E+01                1  1.0 0.00  1088
 250  O  9  ct1  C  C 6.325E-01  3.311E+00  1.200E+01                1  1.0 0.00  1099
 251  O  9  ct1  C  O 6.325E-01  3.311E+00  1.200E+01                1  1.0 0.00  1110
 252  O  9  ct1  O  O 6.325E-01  3.311E+00  1.200E+01                1  1.0 0.00  1121
 253  O  9  ct1  H  H 1.204E+00  2.400E+00  1.200E+01               -1  1.0 0.00  1063
 254  O  9  ct1  H  C 1.204E+00  2.400E+00  1.200E+01               -1  1.0 0.00  1074
 255  O  9  ct1  H  O 1.204E+00  2.400E+00  1.200E+01               -1  1.0 0.00  1085
 256  O  9  ct1  C  C 1.204E+00  2.400E+00  1.200E+01               -1  1.0 0.00  1096
 257  O  9  ct1  C  O 1.204E+00  2.400E+00  1.200E+01               -1  1.0 0.00  1107
 258  O  9  ct1  H  H 1.204E+00  2.400E+00  1.200E+01                1  1.0 0.00  1064
 259  O  9  ct1  H  C 1.204E+00  2.400E+00  1.200E+01                1  1.0 0.00  1075
 260  O  9  ct1  H  O 1.204E+00  2.400E+00  1.200E+01                1  1.0 0.00  1086
 261  O  9  ct1  C  C 1.204E+00  2.400E+00  1.200E+01                1  1.0 0.00  1097
 262  O  9  ct1  C  O 1.204E+00  2.400E+00  1.200E+01                1  1.0 0.00  1108
-------------------------------------------------------------------------------------------------
Minimum cutoff radius for element  H: 12.000000
Minimum cutoff radius for element  C: 12.000000
Minimum cutoff radius for element  O: 12.000000
Maximum cutoff radius (global)      : 12.000000
*******************************************************************************

*** SETUP: SYMMETRY FUNCTION MEMORY *******************************************

Symmetry function derivatives memory table for element  H :
-------------------------------------------------------------------------------
Relevant symmetry functions for neighbors with element:
-  H:  130 of  269 ( 48.3 %)
-  C:  130 of  269 ( 48.3 %)
-  O:  129 of  269 ( 48.0 %)
-------------------------------------------------------------------------------
Symmetry function derivatives memory table for element  C :
-------------------------------------------------------------------------------
Relevant symmetry functions for neighbors with element:
-  H:  130 of  266 ( 48.9 %)
-  C:  130 of  266 ( 48.9 %)
-  O:  126 of  266 ( 47.4 %)
-------------------------------------------------------------------------------
Symmetry function derivatives memory table for element  O :
-------------------------------------------------------------------------------
Relevant symmetry functions for neighbors with element:
-  H:  129 of  262 ( 49.2 %)
-  C:  128 of  262 ( 48.9 %)
-  O:  122 of  262 ( 46.6 %)
-------------------------------------------------------------------------------
*******************************************************************************

*** SETUP: SYMMETRY FUNCTION CACHE ********************************************

Element  H: in total 6 caches, used 129.67 times on average.
Element  C: in total 6 caches, used 128.67 times on average.
Element  O: in total 6 caches, used 126.33 times on average.
*******************************************************************************

*** SETUP: SYMMETRY FUNCTION GROUPS *******************************************

Abbreviations:
--------------
ind .... Symmetry function index.
ec ..... Central atom element.
tp ..... Symmetry function type.
sbtp ... Symmetry function subtype (e.g. cutoff type).
e1 ..... Neighbor 1 element.
e2 ..... Neighbor 2 element.
eta .... Gaussian width eta.
rs/rl... Shift distance of Gaussian or left cutoff radius for polynomial.
angl.... Left cutoff angle for polynomial.
angr.... Right cutoff angle for polynomial.
la ..... Angle prefactor lambda.
zeta ... Angle term exponent zeta.
rc ..... Cutoff radius / right cutoff radius for polynomial.
a ...... Free parameter alpha (e.g. cutoff alpha).
ln ..... Line number in settings file.
mi ..... Member index.
sfi .... Symmetry function index.
e ...... Recalculate exponential term.

Short range atomic symmetry function groups element  H :
----------------------------------------------------------------------------------------------------------
 ind ec tp sbtp e1 e2       eta      rs/rl         rc   angl   angr la zeta    a    ln   mi  sfi e
----------------------------------------------------------------------------------------------------------
   1  H  2  ct1  H            *          *  1.200E+01                       0.00     *    *    *  
   -  -  -    -  -    6.944E-03  0.000E+00          -                          -   156    1    1  
   -  -  -    -  -    1.389E-02  0.000E+00          -                          -   157    2    4  
   -  -  -    -  -    2.778E-02  0.000E+00          -                          -   158    3    7  
   -  -  -    -  -    5.556E-02  0.000E+00          -                          -   159    4   10  
   -  -  -    -  -    9.168E-02  8.697E+00          -                          -   653    5   13  
   -  -  -    -  -    1.111E-01  0.000E+00          -                          -   160    6   16  
   -  -  -    -  -    1.745E-01  6.304E+00          -                          -   652    7   19  
   -  -  -    -  -    3.322E-01  4.569E+00          -                          -   651    8   22  
   -  -  -    -  -    6.325E-01  3.311E+00          -                          -   650    9   25  
   -  -  -    -  -    1.204E+00  2.400E+00          -                          -   649   10   28  
   2  H  2  ct1  C            *          *  1.200E+01                       0.00     *    *    *  
[...]
      48    472.44218   -53047.804            0   -53016.598    13583.249    5557.3197 
      49    475.36608   -53048.021            0   -53016.622    10891.833      5557.32 
### NNP EW SUMMARY ### TS:         50 EW          0 EWPERSTEP  0.000E+00
      50    478.45913   -53048.216            0   -53016.613    12204.268    5557.3202 
      51    480.49946   -53048.341            0   -53016.603    11321.922    5557.3205 
      52    481.56811    -53048.42            0   -53016.611    12836.534    5557.3208 
      53    480.55425   -53048.349            0   -53016.608    10350.654     5557.321 
      54    478.88211   -53048.227            0   -53016.596    9947.4479    5557.3213 
      55    478.58716   -53048.232            0    -53016.62    11773.012    5557.3216 
      56    479.83297   -53048.296            0   -53016.603    11026.786    5557.3219 
      57    482.92841   -53048.502            0   -53016.604    7469.1578    5557.3222 
      58    487.78152   -53048.832            0   -53016.613    7572.5928    5557.3225 
      59    491.38135   -53049.033            0   -53016.576    1749.9491    5557.3228 
### NNP EW SUMMARY ### TS:         60 EW          0 EWPERSTEP  0.000E+00
      60    495.13878   -53049.273            0   -53016.568    1529.0781    5557.3231 
      61    499.95147   -53049.582            0   -53016.559   -100.59169    5557.3234 
      62    506.44564   -53050.045            0   -53016.593    2175.4892    5557.3237 
      63    510.34926    -53050.27            0    -53016.56    8265.1649     5557.324 
      64    508.86684   -53050.161            0   -53016.549    9306.8694    5557.3243 
      65    504.81081    -53049.89            0   -53016.546     7905.687    5557.3246 
      66    499.03365   -53049.493            0   -53016.531    5268.7401    5557.3249 
      67    495.73778   -53049.258            0   -53016.513    7048.8589    5557.3252 
      68    496.26583   -53049.305            0   -53016.526    6817.9523    5557.3256 
      69    499.70246   -53049.545            0   -53016.538    6795.5986    5557.3259 
### NNP EW SUMMARY ### TS:         70 EW          9 EWPERSTEP  9.000E-01
      70    505.43132   -53049.919            0   -53016.535    6217.6489    5557.3262 
      71    510.66557   -53050.288            0   -53016.558    6192.0544    5557.3265 
      72    514.26829   -53050.517            0   -53016.548    6079.0879    5557.3269 
      73    516.51359   -53050.641            0   -53016.524    6522.0657    5557.3272 
      74    519.38975   -53050.846            0   -53016.539    3438.8144    5557.3275 
      75     523.7921   -53051.127            0    -53016.53    5241.8979    5557.3279 
      76    527.32202   -53051.417            0   -53016.587    4056.6054    5557.3282 
      77    525.91403   -53051.325            0   -53016.588    4117.3978    5557.3285 
      78    519.94152    -53050.91            0   -53016.567    1594.4155    5557.3289 
      79    513.83928    -53050.52            0    -53016.58    -63.26597    5557.3292 
### NNP EW SUMMARY ### TS:         80 EW         10 EWPERSTEP  1.000E+00
      80    509.25394   -53050.239            0   -53016.601   -1516.8233    5557.3295 
      81    504.34372   -53049.929            0   -53016.617   -1883.3281    5557.3299 
      82      502.388   -53049.793            0   -53016.609   -934.38018    5557.3302 
      83    502.96453   -53049.812            0   -53016.591    144.26914    5557.3306 
      84    504.25534   -53049.898            0   -53016.591   -1471.5271    5557.3309 
      85    507.42097   -53050.095            0   -53016.578   -1055.9262    5557.3312 
      86    510.17483   -53050.216            0   -53016.518    1386.7223    5557.3316 
      87    511.84093    -53050.34            0   -53016.532    3203.2842    5557.3319 
      88    513.97801   -53050.438            0   -53016.489    6370.8565    5557.3322 
      89     516.1396   -53050.481            0   -53016.389    5226.5883    5557.3326 
### NNP EW SUMMARY ### TS:         90 EW         10 EWPERSTEP  1.000E+00
      90    511.50862    -53050.13            0   -53016.344   -3761.4153    5557.3329 
      91    511.86482   -53050.134            0   -53016.324    8809.8439    5557.3333 
      92    508.44475    -53049.88            0   -53016.296    6721.3778    5557.3336 
      93    507.90718   -53049.807            0   -53016.259    7552.9758     5557.334 
      94    512.50576    -53050.17            0   -53016.318    6827.5033    5557.3343 
      95    518.13025   -53050.545            0   -53016.322    6549.5545    5557.3347 
      96    524.96913   -53051.021            0   -53016.345    5631.1029     5557.335 
      97    526.33791   -53051.017            0   -53016.251    13442.842    5557.3354 
      98    530.91362   -53051.379            0   -53016.311    9137.9772    5557.3357 
      99    533.71758   -53051.376            0   -53016.123    5820.1517    5557.3361 
### NNP EW SUMMARY ### TS:        100 EW          4 EWPERSTEP  4.000E-01
     100    529.49643   -53051.117            0   -53016.142    5678.4365    5557.3365 
     101    523.51906    -53050.74            0    -53016.16    5809.0603    5557.3368 
     102    516.94534   -53050.299            0   -53016.154    7534.1472    5557.3372 
     103    513.64269   -53050.087            0    -53016.16    7175.3189    5557.3376 
     104    513.23819   -53050.121            0   -53016.221    4152.0146     5557.338 
     105    513.38124   -53050.055            0   -53016.145   -1618.0316    5557.3384 
     106    517.81429   -53050.414            0   -53016.211    66.494717    5557.3387 
     107    523.23113   -53050.783            0   -53016.222    793.37562    5557.3391 
     108    526.60634   -53051.017            0   -53016.233    1670.9027    5557.3395 
     109     526.3775   -53051.016            0   -53016.247    1502.4259    5557.3399 
### NNP EW SUMMARY ### TS:        110 EW          0 EWPERSTEP  0.000E+00
     110    522.71937   -53050.761            0   -53016.234    4220.3112    5557.3403 
     111    515.08469   -53050.302            0    -53016.28    5747.9318    5557.3406 
     112    505.94924   -53049.628            0   -53016.209    2936.3286     5557.341 
     113    504.51936    -53049.51            0   -53016.186    3726.0154    5557.3414 
     114    510.11916     -53049.9            0   -53016.206    3351.5914    5557.3418 
     115      515.962   -53050.336            0   -53016.256    5378.4693    5557.3422 
     116    519.81866   -53050.587            0   -53016.252    5655.0133    5557.3426 
     117     522.1867    -53050.76            0   -53016.269    7796.1309     5557.343 
     118    522.47374   -53050.746            0   -53016.236    9150.4925    5557.3434 
     119    519.60659   -53050.596            0   -53016.275    7101.3865    5557.3438 
### NNP EW SUMMARY ### TS:        120 EW          0 EWPERSTEP  0.000E+00
     120    517.16316   -53050.424            0   -53016.265    6671.1604    5557.3442 
     121    516.94735   -53050.383            0   -53016.238    6081.8484    5557.3446 
     122    517.83953   -53050.388            0   -53016.184    7479.1368     5557.345 
     123    517.71349   -53050.375            0   -53016.179    6589.4614    5557.3454 
     124    517.12672   -53050.336            0   -53016.179    7711.8981    5557.3458 
     125    515.36051   -53050.227            0   -53016.186    5726.7959    5557.3462 
     126    510.18788   -53049.924            0   -53016.225    4473.8762    5557.3466 
     127    503.80047   -53049.185            0   -53015.908    4959.5769    5557.3471 
     128     502.5433    -53049.09            0   -53015.896    4965.6588    5557.3475 
     129    506.96649   -53049.443            0   -53015.957    4160.7007    5557.3479 
### NNP EW SUMMARY ### TS:        130 EW          3 EWPERSTEP  3.000E-01
     130    513.26081   -53049.871            0   -53015.969    5407.9246    5557.3483 
     131    519.94526   -53050.288            0   -53015.944    12914.312    5557.3488 
     132    525.80497   -53050.734            0   -53016.004     10844.22    5557.3492 
     133    528.98673   -53050.905            0   -53015.964     10566.99    5557.3496 
     134    532.68511   -53051.163            0   -53015.978    9853.6913    5557.3501 
     135    530.62507   -53050.846            0   -53015.797    6711.6875    5557.3505 
     136    527.87338   -53050.662            0   -53015.795    6664.7189     5557.351 
     137    531.25776   -53050.797            0   -53015.706    5077.0332    5557.3514 
     138    537.57403   -53051.038            0    -53015.53    12470.883    5557.3519 
     139      538.399    -53051.09            0   -53015.528    8675.5308    5557.3523 
### NNP EW SUMMARY ### TS:        140 EW          0 EWPERSTEP  0.000E+00
     140    540.69367   -53051.246            0   -53015.532    6276.4028    5557.3528 
     141    536.17838   -53051.164            0   -53015.748    4818.7528    5557.3532 
     142    533.43185   -53051.014            0    -53015.78    6617.5097    5557.3537 
     143    536.91166   -53051.261            0   -53015.797     6449.937    5557.3542 
     144    543.67776   -53051.825            0   -53015.914    8462.4798    5557.3546 
     145    549.40101   -53052.225            0   -53015.936    8704.8823    5557.3551 
     146    550.01609   -53052.213            0   -53015.883    8503.7235    5557.3556 
     147    549.04855   -53052.186            0    -53015.92    8211.6567    5557.3561 
     148    549.50914   -53052.214            0   -53015.918     6363.045    5557.3565 
     149     548.7307   -53052.152            0   -53015.907    9056.6232     5557.357 
### NNP EW SUMMARY ### TS:        150 EW          0 EWPERSTEP  0.000E+00
     150    542.08701    -53051.91            0   -53016.104    1921.2155    5557.3575 
     151    541.72895   -53051.906            0   -53016.123     3911.786     5557.358 
     152    545.84242   -53052.108            0   -53016.054    9397.4907    5557.3585 
     153    545.44518   -53052.086            0   -53016.058     11466.38     5557.359 
     154    542.80309   -53051.913            0    -53016.06    9503.5836    5557.3595 
     155    537.97968   -53051.572            0   -53016.037     10109.35      5557.36 
     156    533.37356   -53051.283            0   -53016.052    11607.938    5557.3605 
     157    530.78879   -53051.127            0   -53016.067    11352.367     5557.361 
     158    532.41396   -53051.202            0   -53016.035    11265.981    5557.3615 
     159    538.45964   -53051.611            0   -53016.045    11097.261     5557.362 
### NNP EW SUMMARY ### TS:        160 EW          0 EWPERSTEP  0.000E+00
     160    543.53334   -53051.947            0   -53016.046    9284.0627    5557.3626 
     161    544.05951    -53051.93            0   -53015.994    13614.678    5557.3631 
     162    539.46941   -53051.623            0    -53015.99    12366.133    5557.3636 
     163    531.99451   -53051.148            0   -53016.009    9885.9349    5557.3642 
     164    524.21814   -53050.647            0   -53016.021    10097.218    5557.3647 
     165    515.45678   -53049.883            0   -53015.836   -2465.8412    5557.3652 
     166    520.16399   -53050.251            0   -53015.894    10584.391    5557.3658 
     167    520.27255   -53050.285            0    -53015.92    9874.5639    5557.3663 
     168    522.58803   -53050.421            0   -53015.903    13047.378    5557.3669 
     169    526.12646   -53050.673            0   -53015.921    11006.961    5557.3674 
### NNP EW SUMMARY ### TS:        170 EW          2 EWPERSTEP  2.000E-01
     170    527.36849   -53050.841            0   -53016.008    9954.3948     5557.368 
     171    526.46887   -53050.514            0    -53015.74    9371.9046    5557.3686 
     172    526.22853   -53050.495            0   -53015.736    9383.8949    5557.3691 
     173    526.27925   -53050.481            0   -53015.719    13078.037    5557.3697 
     174    526.83086   -53050.524            0   -53015.726    10628.096    5557.3703 
     175    528.18377   -53050.587            0   -53015.699    13271.026    5557.3709 
     176    532.54241   -53050.894            0   -53015.718    13350.925    5557.3715 
     177    539.82234    -53051.36            0   -53015.704    16431.014     5557.372 
     178    545.86025   -53051.736            0   -53015.681    17545.975    5557.3726 
     179    552.06729   -53052.172            0   -53015.707    13809.888    5557.3733 
### NNP EW SUMMARY ### TS:        180 EW          5 EWPERSTEP  5.000E-01
     180    557.90668   -53052.485            0   -53015.634    13661.854    5557.3739 
     181    561.75786   -53052.728            0   -53015.623     15456.59    5557.3745 
     182    561.84056   -53052.694            0   -53015.584    14890.894    5557.3751 
     183    559.03227   -53052.511            0   -53015.586    15402.531    5557.3757 
     184    556.23885   -53052.306            0   -53015.565    12680.414    5557.3764 
     185    552.52335   -53052.077            0   -53015.582    7525.6044     5557.377 
     186    547.26308   -53051.751            0   -53015.603     13282.55    5557.3776 
     187    544.02229   -53051.458            0   -53015.525    13803.328    5557.3783 
     188    544.36046   -53051.531            0   -53015.575    5956.7994    5557.3789 
     189    545.71495    -53051.67            0   -53015.624    1628.6029    5557.3796 
### NNP EW SUMMARY ### TS:        190 EW          3 EWPERSTEP  3.000E-01
     190    545.77531    -53051.65            0     -53015.6    4.4286661    5557.3802 
     191    545.10266   -53051.563            0   -53015.558   -2527.0256    5557.3809 
     192    544.03641   -53051.575            0    -53015.64   -1897.0339    5557.3815 
     193    543.22381   -53051.524            0   -53015.643   -356.87925    5557.3822 
     194    544.55557   -53051.625            0   -53015.656    5222.2975    5557.3828 
     195    546.33294   -53051.756            0   -53015.669     9695.538    5557.3835 
     196    548.37879   -53051.805            0   -53015.584    10653.223    5557.3842 
     197    551.59567   -53052.009            0   -53015.575    8226.4506    5557.3848 
     198    553.77411   -53052.122            0   -53015.545    7035.2208    5557.3855 
     199    559.09912   -53052.496            0   -53015.566    4337.1325    5557.3862 
### NNP EW SUMMARY ### TS:        200 EW          4 EWPERSTEP  4.000E-01
     200    563.37946   -53052.797            0   -53015.585    3850.2439    5557.3868 
     201    565.57518   -53052.934            0   -53015.577    3628.9436    5557.3875 
     202    565.33316   -53052.908            0   -53015.567    5412.3473    5557.3882 
     203    565.26044   -53052.942            0   -53015.605    6220.2121    5557.3888 
     204    565.16595   -53052.917            0   -53015.587    2395.2686    5557.3895 
     205    566.25028   -53052.955            0   -53015.553    727.37022    5557.3902 
     206    568.96673   -53053.129            0   -53015.548    2035.2926    5557.3909 
     207    569.25546   -53053.113            0   -53015.513    2683.6586    5557.3915 
     208    566.91558   -53052.982            0   -53015.536     3036.635    5557.3922 
     209    560.85586   -53052.574            0   -53015.528    5099.7462    5557.3929 
### NNP EW SUMMARY ### TS:        210 EW          8 EWPERSTEP  8.000E-01
     210    553.75374   -53052.138            0   -53015.561    7349.4941    5557.3936 
     211    548.78378    -53051.82            0   -53015.572    8873.0903    5557.3943 
     212    546.97071   -53051.692            0   -53015.564    8880.3525     5557.395 
     213    547.85614   -53051.736            0   -53015.549    4992.3193    5557.3957 
     214    549.62455   -53051.863            0    -53015.56      1772.02    5557.3964 
     215     553.2559   -53052.103            0   -53015.559   -2236.8604     5557.397 
     216     556.4787   -53052.383            0   -53015.626   -1509.8378    5557.3977 
     217    558.10532   -53052.534            0    -53015.67    348.88509    5557.3984 
     218    558.76859   -53052.543            0   -53015.635    3725.6451    5557.3991 
     219    563.34837   -53052.789            0   -53015.579   -5233.0551    5557.3998 
### NNP EW SUMMARY ### TS:        220 EW          3 EWPERSTEP  3.000E-01
     220    564.84583   -53052.934            0   -53015.625   -1449.3363    5557.4005 
     221    565.72391   -53052.949            0   -53015.582    1840.6498    5557.4012 
     222    567.12404   -53053.014            0   -53015.555    3955.7702    5557.4019 
     223    571.37468   -53053.257            0   -53015.517    9182.7564    5557.4026 
     224    574.79521    -53053.47            0   -53015.504    1898.1215    5557.4033 
     225    572.88806   -53053.305            0   -53015.465    7578.8664     5557.404 
     226    572.52855    -53053.29            0   -53015.474    9015.7946    5557.4047 
     227    573.51414   -53053.356            0   -53015.475    8728.8336    5557.4054 
     228    574.68499   -53053.426            0   -53015.467    7377.9033    5557.4061 
     229    575.46867   -53053.531            0    -53015.52     649.0198    5557.4068 
### NNP EW SUMMARY ### TS:        230 EW          6 EWPERSTEP  6.000E-01
     230    573.33431   -53053.131            0   -53015.261    3288.5393    5557.4075 
     231    569.75606   -53052.902            0   -53015.269    3290.8108    5557.4083 
     232    566.59878   -53052.655            0    -53015.23    10475.466     5557.409 
     233    565.25342    -53052.55            0   -53015.214    8494.9152    5557.4097 
     234    563.05882   -53052.398            0   -53015.207    6311.9065    5557.4104 
     235    559.66216   -53052.128            0   -53015.161    3854.3628    5557.4111 
     236    553.35018   -53051.631            0   -53015.081    11908.219    5557.4119 
     237    546.44577   -53051.127            0   -53015.033     11594.19    5557.4126 
     238    542.30324   -53051.043            0   -53015.223     3278.209    5557.4133 
     239    537.48145   -53050.675            0   -53015.173   -478.08923    5557.4141 
### NNP EW SUMMARY ### TS:        240 EW         16 EWPERSTEP  1.600E+00
     240    536.30604   -53050.631            0   -53015.207    967.17854    5557.4148 
     241    538.37609   -53050.755            0   -53015.194   -2389.3265    5557.4155 
     242     537.9595    -53050.53            0   -53014.997      9864.41    5557.4163 
     243    539.77117   -53050.657            0   -53015.004    10432.881     5557.417 
     244    545.40893   -53051.223            0   -53015.198    4674.3948    5557.4177 
     245    548.01322   -53051.373            0   -53015.176    4239.7791    5557.4185 
     246    550.66227   -53051.571            0   -53015.199    3363.5247    5557.4192 
     247    550.98836   -53051.598            0   -53015.204     3353.884      5557.42 
     248    548.81155   -53051.467            0   -53015.217    3421.1813    5557.4207 
     249    540.99322   -53050.983            0   -53015.249     12465.09    5557.4215 
### NNP EW SUMMARY ### TS:        250 EW         46 EWPERSTEP  4.600E+00
     250    539.62701    -53050.85            0   -53015.207    17450.533    5557.4222 
     251    546.95155   -53051.196            0   -53015.069    5808.6782     5557.423 
     252    550.75846   -53051.386            0   -53015.008    5516.2443    5557.4238 
     253    554.39159    -53051.66            0   -53015.041    5253.1841    5557.4245 
     254     559.0123   -53051.986            0   -53015.062    5612.1767    5557.4253 
     255    563.47409   -53052.262            0   -53015.044    5943.4387    5557.4261 
ERROR on proc 21: Too many extrapolation warnings (src/USER-NNP/pair_nnp.cpp:409)
