LAMMPS (29 Oct 2020)
Reading data file ...
  orthogonal box = (0.0000000 0.0000000 0.0000000) to (17.712844 17.712844 17.712844)
  2 by 3 by 4 MPI processor grid
  reading atoms ...
  512 atoms
  read_data CPU = 0.005 seconds

*******************************************************************************

WELCOME TO n²p², A SOFTWARE PACKAGE FOR NEURAL NETWORK POTENTIALS!
------------------------------------------------------------------

n²p² version  (from git): v2.1.4-1-gb45aafc
             (version.h): v2.1.4
------------------------------------------------------------
Git branch              : master
Git revision            : b45aafc12292c43ea4f575379cb9fcaf5cf20a1d
Compile date/time       : Jun 16 2021 17:18:47
------------------------------------------------------------

Features/Flags:
------------------------------------------------------------
Symmetry function groups     : enabled
Symmetry function cache      : enabled
Timing function available    : available
Asymmetric polynomial SFs    : available
SF low neighbor number check : enabled
SF derivative memory layout  : reduced
MPI explicitly disabled      : no
------------------------------------------------------------

Please cite the following papers when publishing results obtained with n²p²:
-------------------------------------------------------------------------------
 * General citation for n²p² and the LAMMPS interface:

 Singraber, A.; Behler, J.; Dellago, C.
 Library-Based LAMMPS Implementation of High-Dimensional
 Neural Network Potentials.
 J. Chem. Theory Comput. 2019 15 (3), 1827–1840.
 https://doi.org/10.1021/acs.jctc.8b00770
-------------------------------------------------------------------------------
 * Additionally, if you use the NNP training features of n²p²:

 Singraber, A.; Morawietz, T.; Behler, J.; Dellago, C.
 Parallel Multistream Training of High-Dimensional Neural
 Network Potentials.
 J. Chem. Theory Comput. 2019, 15 (5), 3075–3092.
 https://doi.org/10.1021/acs.jctc.8b01092
-------------------------------------------------------------------------------
 * Additionally, if polynomial symmetry functions are used:

 Bircher, M. P.; Singraber, A.; Dellago, C.
 Improved Description of Atomic Environments Using Low-Cost
 Polynomial Functions with Compact Support.
 arXiv:2010.14414 [cond-mat, physics:physics] 2020.
 https://arxiv.org/abs/2010.14414
*******************************************************************************

*** SETUP: SETTINGS FILE ******************************************************

Settings file name: /home/vol00/scarf860/cc_placement/CC_HDNNP/examples/m_cresol/nvt_frames/lammps/nnp/input.nn
Read 1128 lines.
Found 852 lines with keywords.
This settings file defines a short-range only NNP.
*******************************************************************************

*** SETUP: NORMALIZATION ******************************************************

Data set normalization is used.
Mean energy per atom     :  -2.9490687253024300E-01
Conversion factor energy :   1.3307681597740063E+03
Conversion factor length :   3.4249466430307962E+01

Atomic energy offsets are used in addition to data set normalization.
Offsets will be subtracted from reference energies BEFORE normalization is applied.
*******************************************************************************

*** SETUP: ELEMENT MAP ********************************************************

Number of element strings found: 3
Element  0:  H (  1)
Element  1:  C (  6)
Element  2:  O (  8)
*******************************************************************************

*** SETUP: ELEMENTS ***********************************************************

Number of elements is consistent: 3
Atomic energy offsets per element:
Element  0:  -3.75123083E-01
Element  1:  -5.33572749E+00
Element  2:  -1.58336174E+01
Energy offsets are automatically subtracted from reference energies.
*******************************************************************************

*** SETUP: CUTOFF FUNCTIONS ***************************************************

Parameter alpha for inner cutoff: 0.000000
Inner cutoff = Symmetry function cutoff * alpha
Equal cutoff function type for all symmetry functions:
CutoffFunction::CT_COS (1)
x := (r - rc * alpha) / (rc - rc * alpha)
f(x) = 1/2 * (cos(pi*x) + 1)
*******************************************************************************

*** SETUP: SYMMETRY FUNCTIONS *************************************************

Abbreviations:
--------------
ind .... Symmetry function index.
ec ..... Central atom element.
tp ..... Symmetry function type.
sbtp ... Symmetry function subtype (e.g. cutoff type).
e1 ..... Neighbor 1 element.
e2 ..... Neighbor 2 element.
eta .... Gaussian width eta.
rs/rl... Shift distance of Gaussian or left cutoff radius for polynomial.
angl.... Left cutoff angle for polynomial.
angr.... Right cutoff angle for polynomial.
la ..... Angle prefactor lambda.
zeta ... Angle term exponent zeta.
rc ..... Cutoff radius / right cutoff radius for polynomial.
a ...... Free parameter alpha (e.g. cutoff alpha).
ln ..... Line number in settings file.

Short range atomic symmetry functions element  H :
-------------------------------------------------------------------------------------------------
 ind ec tp sbtp e1 e2       eta      rs/rl         rc   angl   angr la zeta    a    ln
-------------------------------------------------------------------------------------------------
   1  H  2  ct1  H    6.944E-03  0.000E+00  1.200E+01                       0.00   156
   2  H  2  ct1  C    6.944E-03  0.000E+00  1.200E+01                       0.00   162
   3  H  2  ct1  O    6.944E-03  0.000E+00  1.200E+01                       0.00   168
   4  H  2  ct1  H    1.389E-02  0.000E+00  1.200E+01                       0.00   157
   5  H  2  ct1  C    1.389E-02  0.000E+00  1.200E+01                       0.00   163
   6  H  2  ct1  O    1.389E-02  0.000E+00  1.200E+01                       0.00   169
   7  H  2  ct1  H    2.778E-02  0.000E+00  1.200E+01                       0.00   158
   8  H  2  ct1  C    2.778E-02  0.000E+00  1.200E+01                       0.00   164
   9  H  2  ct1  O    2.778E-02  0.000E+00  1.200E+01                       0.00   170
  10  H  2  ct1  H    5.556E-02  0.000E+00  1.200E+01                       0.00   159
  11  H  2  ct1  C    5.556E-02  0.000E+00  1.200E+01                       0.00   165
  12  H  2  ct1  O    5.556E-02  0.000E+00  1.200E+01                       0.00   171
  13  H  2  ct1  H    9.168E-02  8.697E+00  1.200E+01                       0.00   653
  14  H  2  ct1  C    9.168E-02  8.697E+00  1.200E+01                       0.00   659
  15  H  2  ct1  O    9.168E-02  8.697E+00  1.200E+01                       0.00   665
  16  H  2  ct1  H    1.111E-01  0.000E+00  1.200E+01                       0.00   160
  17  H  2  ct1  C    1.111E-01  0.000E+00  1.200E+01                       0.00   166
  18  H  2  ct1  O    1.111E-01  0.000E+00  1.200E+01                       0.00   172
  19  H  2  ct1  H    1.745E-01  6.304E+00  1.200E+01                       0.00   652
  20  H  2  ct1  C    1.745E-01  6.304E+00  1.200E+01                       0.00   658
  21  H  2  ct1  O    1.745E-01  6.304E+00  1.200E+01                       0.00   664
  22  H  2  ct1  H    3.322E-01  4.569E+00  1.200E+01                       0.00   651
  23  H  2  ct1  C    3.322E-01  4.569E+00  1.200E+01                       0.00   657
  24  H  2  ct1  O    3.322E-01  4.569E+00  1.200E+01                       0.00   663
  25  H  2  ct1  H    6.325E-01  3.311E+00  1.200E+01                       0.00   650
  26  H  2  ct1  C    6.325E-01  3.311E+00  1.200E+01                       0.00   656
  27  H  2  ct1  O    6.325E-01  3.311E+00  1.200E+01                       0.00   662
  28  H  2  ct1  H    1.204E+00  2.400E+00  1.200E+01                       0.00   649
  29  H  2  ct1  C    1.204E+00  2.400E+00  1.200E+01                       0.00   655
  30  H  2  ct1  O    1.204E+00  2.400E+00  1.200E+01                       0.00   661
  31  H  3  ct1  H  H 6.944E-03  0.000E+00  1.200E+01               -1  1.0 0.00   225
  32  H  3  ct1  H  C 6.944E-03  0.000E+00  1.200E+01               -1  1.0 0.00   236
  33  H  3  ct1  H  O 6.944E-03  0.000E+00  1.200E+01               -1  1.0 0.00   247
  34  H  3  ct1  C  C 6.944E-03  0.000E+00  1.200E+01               -1  1.0 0.00   258
  35  H  3  ct1  C  O 6.944E-03  0.000E+00  1.200E+01               -1  1.0 0.00   269
  36  H  3  ct1  O  O 6.944E-03  0.000E+00  1.200E+01               -1  1.0 0.00   280
  37  H  3  ct1  H  H 6.944E-03  0.000E+00  1.200E+01                1  1.0 0.00   226
  38  H  3  ct1  H  C 6.944E-03  0.000E+00  1.200E+01                1  1.0 0.00   237
  39  H  3  ct1  H  O 6.944E-03  0.000E+00  1.200E+01                1  1.0 0.00   248
  40  H  3  ct1  C  C 6.944E-03  0.000E+00  1.200E+01                1  1.0 0.00   259
  41  H  3  ct1  C  O 6.944E-03  0.000E+00  1.200E+01                1  1.0 0.00   270
  42  H  3  ct1  O  O 6.944E-03  0.000E+00  1.200E+01                1  1.0 0.00   281
  43  H  3  ct1  H  H 1.389E-02  0.000E+00  1.200E+01               -1  1.0 0.00   227
  44  H  3  ct1  H  C 1.389E-02  0.000E+00  1.200E+01               -1  1.0 0.00   238
  45  H  3  ct1  H  O 1.389E-02  0.000E+00  1.200E+01               -1  1.0 0.00   249
  46  H  3  ct1  C  C 1.389E-02  0.000E+00  1.200E+01               -1  1.0 0.00   260
  47  H  3  ct1  C  O 1.389E-02  0.000E+00  1.200E+01               -1  1.0 0.00   271
  48  H  3  ct1  O  O 1.389E-02  0.000E+00  1.200E+01               -1  1.0 0.00   282
  49  H  3  ct1  H  H 1.389E-02  0.000E+00  1.200E+01                1  1.0 0.00   228
  50  H  3  ct1  H  C 1.389E-02  0.000E+00  1.200E+01                1  1.0 0.00   239
  51  H  3  ct1  H  O 1.389E-02  0.000E+00  1.200E+01                1  1.0 0.00   250
  52  H  3  ct1  C  C 1.389E-02  0.000E+00  1.200E+01                1  1.0 0.00   261
  53  H  3  ct1  C  O 1.389E-02  0.000E+00  1.200E+01                1  1.0 0.00   272
  54  H  3  ct1  O  O 1.389E-02  0.000E+00  1.200E+01                1  1.0 0.00   283
  55  H  3  ct1  H  H 2.778E-02  0.000E+00  1.200E+01               -1  1.0 0.00   229
  56  H  3  ct1  H  C 2.778E-02  0.000E+00  1.200E+01               -1  1.0 0.00   240
  57  H  3  ct1  H  O 2.778E-02  0.000E+00  1.200E+01               -1  1.0 0.00   251
  58  H  3  ct1  C  C 2.778E-02  0.000E+00  1.200E+01               -1  1.0 0.00   262
  59  H  3  ct1  C  O 2.778E-02  0.000E+00  1.200E+01               -1  1.0 0.00   273
  60  H  3  ct1  O  O 2.778E-02  0.000E+00  1.200E+01               -1  1.0 0.00   284
  61  H  3  ct1  H  H 2.778E-02  0.000E+00  1.200E+01                1  1.0 0.00   230
  62  H  3  ct1  H  C 2.778E-02  0.000E+00  1.200E+01                1  1.0 0.00   241
  63  H  3  ct1  H  O 2.778E-02  0.000E+00  1.200E+01                1  1.0 0.00   252
  64  H  3  ct1  C  C 2.778E-02  0.000E+00  1.200E+01                1  1.0 0.00   263
  65  H  3  ct1  C  O 2.778E-02  0.000E+00  1.200E+01                1  1.0 0.00   274
  66  H  3  ct1  O  O 2.778E-02  0.000E+00  1.200E+01                1  1.0 0.00   285
  67  H  3  ct1  H  H 5.556E-02  0.000E+00  1.200E+01               -1  1.0 0.00   231
  68  H  3  ct1  H  C 5.556E-02  0.000E+00  1.200E+01               -1  1.0 0.00   242
  69  H  3  ct1  H  O 5.556E-02  0.000E+00  1.200E+01               -1  1.0 0.00   253
  70  H  3  ct1  C  C 5.556E-02  0.000E+00  1.200E+01               -1  1.0 0.00   264
  71  H  3  ct1  C  O 5.556E-02  0.000E+00  1.200E+01               -1  1.0 0.00   275
  72  H  3  ct1  O  O 5.556E-02  0.000E+00  1.200E+01               -1  1.0 0.00   286
  73  H  3  ct1  H  H 5.556E-02  0.000E+00  1.200E+01                1  1.0 0.00   232
  74  H  3  ct1  H  C 5.556E-02  0.000E+00  1.200E+01                1  1.0 0.00   243
  75  H  3  ct1  H  O 5.556E-02  0.000E+00  1.200E+01                1  1.0 0.00   254
  76  H  3  ct1  C  C 5.556E-02  0.000E+00  1.200E+01                1  1.0 0.00   265
  77  H  3  ct1  C  O 5.556E-02  0.000E+00  1.200E+01                1  1.0 0.00   276
  78  H  3  ct1  O  O 5.556E-02  0.000E+00  1.200E+01                1  1.0 0.00   287
  79  H  3  ct1  H  H 9.168E-02  8.697E+00  1.200E+01               -1  1.0 0.00   726
  80  H  3  ct1  H  C 9.168E-02  8.697E+00  1.200E+01               -1  1.0 0.00   737
  81  H  3  ct1  H  O 9.168E-02  8.697E+00  1.200E+01               -1  1.0 0.00   748
  82  H  3  ct1  C  C 9.168E-02  8.697E+00  1.200E+01               -1  1.0 0.00   759
  83  H  3  ct1  C  O 9.168E-02  8.697E+00  1.200E+01               -1  1.0 0.00   770
  84  H  3  ct1  O  O 9.168E-02  8.697E+00  1.200E+01               -1  1.0 0.00   781
  85  H  3  ct1  H  H 9.168E-02  8.697E+00  1.200E+01                1  1.0 0.00   727
  86  H  3  ct1  H  C 9.168E-02  8.697E+00  1.200E+01                1  1.0 0.00   738
  87  H  3  ct1  H  O 9.168E-02  8.697E+00  1.200E+01                1  1.0 0.00   749
  88  H  3  ct1  C  C 9.168E-02  8.697E+00  1.200E+01                1  1.0 0.00   760
  89  H  3  ct1  C  O 9.168E-02  8.697E+00  1.200E+01                1  1.0 0.00   771
  90  H  3  ct1  O  O 9.168E-02  8.697E+00  1.200E+01                1  1.0 0.00   782
  91  H  3  ct1  H  H 1.111E-01  0.000E+00  1.200E+01               -1  1.0 0.00   233
  92  H  3  ct1  H  C 1.111E-01  0.000E+00  1.200E+01               -1  1.0 0.00   244
  93  H  3  ct1  H  O 1.111E-01  0.000E+00  1.200E+01               -1  1.0 0.00   255
  94  H  3  ct1  C  C 1.111E-01  0.000E+00  1.200E+01               -1  1.0 0.00   266
  95  H  3  ct1  C  O 1.111E-01  0.000E+00  1.200E+01               -1  1.0 0.00   277
  96  H  3  ct1  O  O 1.111E-01  0.000E+00  1.200E+01               -1  1.0 0.00   288
  97  H  3  ct1  H  H 1.111E-01  0.000E+00  1.200E+01                1  1.0 0.00   234
  98  H  3  ct1  H  C 1.111E-01  0.000E+00  1.200E+01                1  1.0 0.00   245
  99  H  3  ct1  H  O 1.111E-01  0.000E+00  1.200E+01                1  1.0 0.00   256
 100  H  3  ct1  C  C 1.111E-01  0.000E+00  1.200E+01                1  1.0 0.00   267
 101  H  3  ct1  C  O 1.111E-01  0.000E+00  1.200E+01                1  1.0 0.00   278
 102  H  3  ct1  O  O 1.111E-01  0.000E+00  1.200E+01                1  1.0 0.00   289
 103  H  3  ct1  H  H 1.745E-01  6.304E+00  1.200E+01               -1  1.0 0.00   724
 104  H  3  ct1  H  C 1.745E-01  6.304E+00  1.200E+01               -1  1.0 0.00   735
 105  H  3  ct1  H  O 1.745E-01  6.304E+00  1.200E+01               -1  1.0 0.00   746
 106  H  3  ct1  C  C 1.745E-01  6.304E+00  1.200E+01               -1  1.0 0.00   757
 107  H  3  ct1  C  O 1.745E-01  6.304E+00  1.200E+01               -1  1.0 0.00   768
 108  H  3  ct1  O  O 1.745E-01  6.304E+00  1.200E+01               -1  1.0 0.00   779
 109  H  3  ct1  H  H 1.745E-01  6.304E+00  1.200E+01                1  1.0 0.00   725
 110  H  3  ct1  H  C 1.745E-01  6.304E+00  1.200E+01                1  1.0 0.00   736
 111  H  3  ct1  H  O 1.745E-01  6.304E+00  1.200E+01                1  1.0 0.00   747
 112  H  3  ct1  C  C 1.745E-01  6.304E+00  1.200E+01                1  1.0 0.00   758
 113  H  3  ct1  C  O 1.745E-01  6.304E+00  1.200E+01                1  1.0 0.00   769
 114  H  3  ct1  O  O 1.745E-01  6.304E+00  1.200E+01                1  1.0 0.00   780
 115  H  3  ct1  H  H 3.322E-01  4.569E+00  1.200E+01               -1  1.0 0.00   722
 116  H  3  ct1  H  C 3.322E-01  4.569E+00  1.200E+01               -1  1.0 0.00   733
 117  H  3  ct1  H  O 3.322E-01  4.569E+00  1.200E+01               -1  1.0 0.00   744
 118  H  3  ct1  C  C 3.322E-01  4.569E+00  1.200E+01               -1  1.0 0.00   755
 119  H  3  ct1  C  O 3.322E-01  4.569E+00  1.200E+01               -1  1.0 0.00   766
 120  H  3  ct1  O  O 3.322E-01  4.569E+00  1.200E+01               -1  1.0 0.00   777
 121  H  3  ct1  H  H 3.322E-01  4.569E+00  1.200E+01                1  1.0 0.00   723
 122  H  3  ct1  H  C 3.322E-01  4.569E+00  1.200E+01                1  1.0 0.00   734
 123  H  3  ct1  H  O 3.322E-01  4.569E+00  1.200E+01                1  1.0 0.00   745
 124  H  3  ct1  C  C 3.322E-01  4.569E+00  1.200E+01                1  1.0 0.00   756
 125  H  3  ct1  C  O 3.322E-01  4.569E+00  1.200E+01                1  1.0 0.00   767
 126  H  3  ct1  O  O 3.322E-01  4.569E+00  1.200E+01                1  1.0 0.00   778
 127  H  3  ct1  H  H 6.325E-01  3.311E+00  1.200E+01               -1  1.0 0.00   720
 128  H  3  ct1  H  C 6.325E-01  3.311E+00  1.200E+01               -1  1.0 0.00   731
 129  H  3  ct1  H  O 6.325E-01  3.311E+00  1.200E+01               -1  1.0 0.00   742
 130  H  3  ct1  C  C 6.325E-01  3.311E+00  1.200E+01               -1  1.0 0.00   753
 131  H  3  ct1  C  O 6.325E-01  3.311E+00  1.200E+01               -1  1.0 0.00   764
 132  H  3  ct1  O  O 6.325E-01  3.311E+00  1.200E+01               -1  1.0 0.00   775
 133  H  3  ct1  H  H 6.325E-01  3.311E+00  1.200E+01                1  1.0 0.00   721
 134  H  3  ct1  H  C 6.325E-01  3.311E+00  1.200E+01                1  1.0 0.00   732
 135  H  3  ct1  H  O 6.325E-01  3.311E+00  1.200E+01                1  1.0 0.00   743
 136  H  3  ct1  C  C 6.325E-01  3.311E+00  1.200E+01                1  1.0 0.00   754
 137  H  3  ct1  C  O 6.325E-01  3.311E+00  1.200E+01                1  1.0 0.00   765
 138  H  3  ct1  O  O 6.325E-01  3.311E+00  1.200E+01                1  1.0 0.00   776
 139  H  3  ct1  H  H 1.204E+00  2.400E+00  1.200E+01               -1  1.0 0.00   718
 140  H  3  ct1  H  C 1.204E+00  2.400E+00  1.200E+01               -1  1.0 0.00   729
 141  H  3  ct1  H  O 1.204E+00  2.400E+00  1.200E+01               -1  1.0 0.00   740
 142  H  3  ct1  C  C 1.204E+00  2.400E+00  1.200E+01               -1  1.0 0.00   751
 143  H  3  ct1  C  O 1.204E+00  2.400E+00  1.200E+01               -1  1.0 0.00   762
 144  H  3  ct1  O  O 1.204E+00  2.400E+00  1.200E+01               -1  1.0 0.00   773
 145  H  3  ct1  H  H 1.204E+00  2.400E+00  1.200E+01                1  1.0 0.00   719
 146  H  3  ct1  H  C 1.204E+00  2.400E+00  1.200E+01                1  1.0 0.00   730
 147  H  3  ct1  H  O 1.204E+00  2.400E+00  1.200E+01                1  1.0 0.00   741
 148  H  3  ct1  C  C 1.204E+00  2.400E+00  1.200E+01                1  1.0 0.00   752
 149  H  3  ct1  C  O 1.204E+00  2.400E+00  1.200E+01                1  1.0 0.00   763
 150  H  9  ct1  H  H 6.944E-03  0.000E+00  1.200E+01               -1  1.0 0.00   438
 151  H  9  ct1  H  C 6.944E-03  0.000E+00  1.200E+01               -1  1.0 0.00   449
 152  H  9  ct1  H  O 6.944E-03  0.000E+00  1.200E+01               -1  1.0 0.00   460
 153  H  9  ct1  C  C 6.944E-03  0.000E+00  1.200E+01               -1  1.0 0.00   471
 154  H  9  ct1  C  O 6.944E-03  0.000E+00  1.200E+01               -1  1.0 0.00   482
 155  H  9  ct1  O  O 6.944E-03  0.000E+00  1.200E+01               -1  1.0 0.00   493
 156  H  9  ct1  H  H 6.944E-03  0.000E+00  1.200E+01                1  1.0 0.00   439
 157  H  9  ct1  H  C 6.944E-03  0.000E+00  1.200E+01                1  1.0 0.00   450
 158  H  9  ct1  H  O 6.944E-03  0.000E+00  1.200E+01                1  1.0 0.00   461
 159  H  9  ct1  C  C 6.944E-03  0.000E+00  1.200E+01                1  1.0 0.00   472
 160  H  9  ct1  C  O 6.944E-03  0.000E+00  1.200E+01                1  1.0 0.00   483
 161  H  9  ct1  O  O 6.944E-03  0.000E+00  1.200E+01                1  1.0 0.00   494
 162  H  9  ct1  H  H 1.389E-02  0.000E+00  1.200E+01               -1  1.0 0.00   440
 163  H  9  ct1  H  C 1.389E-02  0.000E+00  1.200E+01               -1  1.0 0.00   451
 164  H  9  ct1  H  O 1.389E-02  0.000E+00  1.200E+01               -1  1.0 0.00   462
 165  H  9  ct1  C  C 1.389E-02  0.000E+00  1.200E+01               -1  1.0 0.00   473
 166  H  9  ct1  C  O 1.389E-02  0.000E+00  1.200E+01               -1  1.0 0.00   484
 167  H  9  ct1  O  O 1.389E-02  0.000E+00  1.200E+01               -1  1.0 0.00   495
 168  H  9  ct1  H  H 1.389E-02  0.000E+00  1.200E+01                1  1.0 0.00   441
 169  H  9  ct1  H  C 1.389E-02  0.000E+00  1.200E+01                1  1.0 0.00   452
 170  H  9  ct1  H  O 1.389E-02  0.000E+00  1.200E+01                1  1.0 0.00   463
 171  H  9  ct1  C  C 1.389E-02  0.000E+00  1.200E+01                1  1.0 0.00   474
 172  H  9  ct1  C  O 1.389E-02  0.000E+00  1.200E+01                1  1.0 0.00   485
 173  H  9  ct1  O  O 1.389E-02  0.000E+00  1.200E+01                1  1.0 0.00   496
 174  H  9  ct1  H  H 2.778E-02  0.000E+00  1.200E+01               -1  1.0 0.00   442
 175  H  9  ct1  H  C 2.778E-02  0.000E+00  1.200E+01               -1  1.0 0.00   453
 176  H  9  ct1  H  O 2.778E-02  0.000E+00  1.200E+01               -1  1.0 0.00   464
 177  H  9  ct1  C  C 2.778E-02  0.000E+00  1.200E+01               -1  1.0 0.00   475
 178  H  9  ct1  C  O 2.778E-02  0.000E+00  1.200E+01               -1  1.0 0.00   486
 179  H  9  ct1  O  O 2.778E-02  0.000E+00  1.200E+01               -1  1.0 0.00   497
 180  H  9  ct1  H  H 2.778E-02  0.000E+00  1.200E+01                1  1.0 0.00   443
 181  H  9  ct1  H  C 2.778E-02  0.000E+00  1.200E+01                1  1.0 0.00   454
 182  H  9  ct1  H  O 2.778E-02  0.000E+00  1.200E+01                1  1.0 0.00   465
 183  H  9  ct1  C  C 2.778E-02  0.000E+00  1.200E+01                1  1.0 0.00   476
 184  H  9  ct1  C  O 2.778E-02  0.000E+00  1.200E+01                1  1.0 0.00   487
 185  H  9  ct1  O  O 2.778E-02  0.000E+00  1.200E+01                1  1.0 0.00   498
 186  H  9  ct1  H  H 5.556E-02  0.000E+00  1.200E+01               -1  1.0 0.00   444
 187  H  9  ct1  H  C 5.556E-02  0.000E+00  1.200E+01               -1  1.0 0.00   455
 188  H  9  ct1  H  O 5.556E-02  0.000E+00  1.200E+01               -1  1.0 0.00   466
 189  H  9  ct1  C  C 5.556E-02  0.000E+00  1.200E+01               -1  1.0 0.00   477
 190  H  9  ct1  C  O 5.556E-02  0.000E+00  1.200E+01               -1  1.0 0.00   488
 191  H  9  ct1  O  O 5.556E-02  0.000E+00  1.200E+01               -1  1.0 0.00   499
 192  H  9  ct1  H  H 5.556E-02  0.000E+00  1.200E+01                1  1.0 0.00   445
 193  H  9  ct1  H  C 5.556E-02  0.000E+00  1.200E+01                1  1.0 0.00   456
 194  H  9  ct1  H  O 5.556E-02  0.000E+00  1.200E+01                1  1.0 0.00   467
 195  H  9  ct1  C  C 5.556E-02  0.000E+00  1.200E+01                1  1.0 0.00   478
 196  H  9  ct1  C  O 5.556E-02  0.000E+00  1.200E+01                1  1.0 0.00   489
 197  H  9  ct1  O  O 5.556E-02  0.000E+00  1.200E+01                1  1.0 0.00   500
 198  H  9  ct1  H  H 9.168E-02  8.697E+00  1.200E+01               -1  1.0 0.00   939
 199  H  9  ct1  H  C 9.168E-02  8.697E+00  1.200E+01               -1  1.0 0.00   950
 200  H  9  ct1  H  O 9.168E-02  8.697E+00  1.200E+01               -1  1.0 0.00   961
 201  H  9  ct1  C  C 9.168E-02  8.697E+00  1.200E+01               -1  1.0 0.00   972
 202  H  9  ct1  C  O 9.168E-02  8.697E+00  1.200E+01               -1  1.0 0.00   983
 203  H  9  ct1  O  O 9.168E-02  8.697E+00  1.200E+01               -1  1.0 0.00   994
 204  H  9  ct1  H  H 9.168E-02  8.697E+00  1.200E+01                1  1.0 0.00   940
 205  H  9  ct1  H  C 9.168E-02  8.697E+00  1.200E+01                1  1.0 0.00   951
 206  H  9  ct1  H  O 9.168E-02  8.697E+00  1.200E+01                1  1.0 0.00   962
 207  H  9  ct1  C  C 9.168E-02  8.697E+00  1.200E+01                1  1.0 0.00   973
 208  H  9  ct1  C  O 9.168E-02  8.697E+00  1.200E+01                1  1.0 0.00   984
 209  H  9  ct1  O  O 9.168E-02  8.697E+00  1.200E+01                1  1.0 0.00   995
 210  H  9  ct1  H  H 1.111E-01  0.000E+00  1.200E+01               -1  1.0 0.00   446
 211  H  9  ct1  H  C 1.111E-01  0.000E+00  1.200E+01               -1  1.0 0.00   457
 212  H  9  ct1  H  O 1.111E-01  0.000E+00  1.200E+01               -1  1.0 0.00   468
 213  H  9  ct1  C  C 1.111E-01  0.000E+00  1.200E+01               -1  1.0 0.00   479
 214  H  9  ct1  C  O 1.111E-01  0.000E+00  1.200E+01               -1  1.0 0.00   490
 215  H  9  ct1  O  O 1.111E-01  0.000E+00  1.200E+01               -1  1.0 0.00   501
 216  H  9  ct1  H  H 1.111E-01  0.000E+00  1.200E+01                1  1.0 0.00   447
 217  H  9  ct1  H  C 1.111E-01  0.000E+00  1.200E+01                1  1.0 0.00   458
 218  H  9  ct1  H  O 1.111E-01  0.000E+00  1.200E+01                1  1.0 0.00   469
 219  H  9  ct1  C  C 1.111E-01  0.000E+00  1.200E+01                1  1.0 0.00   480
 220  H  9  ct1  C  O 1.111E-01  0.000E+00  1.200E+01                1  1.0 0.00   491
 221  H  9  ct1  O  O 1.111E-01  0.000E+00  1.200E+01                1  1.0 0.00   502
 222  H  9  ct1  H  H 1.745E-01  6.304E+00  1.200E+01               -1  1.0 0.00   937
 223  H  9  ct1  H  C 1.745E-01  6.304E+00  1.200E+01               -1  1.0 0.00   948
 224  H  9  ct1  H  O 1.745E-01  6.304E+00  1.200E+01               -1  1.0 0.00   959
 225  H  9  ct1  C  C 1.745E-01  6.304E+00  1.200E+01               -1  1.0 0.00   970
 226  H  9  ct1  C  O 1.745E-01  6.304E+00  1.200E+01               -1  1.0 0.00   981
 227  H  9  ct1  O  O 1.745E-01  6.304E+00  1.200E+01               -1  1.0 0.00   992
 228  H  9  ct1  H  H 1.745E-01  6.304E+00  1.200E+01                1  1.0 0.00   938
 229  H  9  ct1  H  C 1.745E-01  6.304E+00  1.200E+01                1  1.0 0.00   949
 230  H  9  ct1  H  O 1.745E-01  6.304E+00  1.200E+01                1  1.0 0.00   960
 231  H  9  ct1  C  C 1.745E-01  6.304E+00  1.200E+01                1  1.0 0.00   971
 232  H  9  ct1  C  O 1.745E-01  6.304E+00  1.200E+01                1  1.0 0.00   982
 233  H  9  ct1  O  O 1.745E-01  6.304E+00  1.200E+01                1  1.0 0.00   993
 234  H  9  ct1  H  H 3.322E-01  4.569E+00  1.200E+01               -1  1.0 0.00   935
 235  H  9  ct1  H  C 3.322E-01  4.569E+00  1.200E+01               -1  1.0 0.00   946
 236  H  9  ct1  H  O 3.322E-01  4.569E+00  1.200E+01               -1  1.0 0.00   957
 237  H  9  ct1  C  C 3.322E-01  4.569E+00  1.200E+01               -1  1.0 0.00   968
 238  H  9  ct1  C  O 3.322E-01  4.569E+00  1.200E+01               -1  1.0 0.00   979
 239  H  9  ct1  O  O 3.322E-01  4.569E+00  1.200E+01               -1  1.0 0.00   990
 240  H  9  ct1  H  H 3.322E-01  4.569E+00  1.200E+01                1  1.0 0.00   936
 241  H  9  ct1  H  C 3.322E-01  4.569E+00  1.200E+01                1  1.0 0.00   947
 242  H  9  ct1  H  O 3.322E-01  4.569E+00  1.200E+01                1  1.0 0.00   958
 243  H  9  ct1  C  C 3.322E-01  4.569E+00  1.200E+01                1  1.0 0.00   969
 244  H  9  ct1  C  O 3.322E-01  4.569E+00  1.200E+01                1  1.0 0.00   980
 245  H  9  ct1  O  O 3.322E-01  4.569E+00  1.200E+01                1  1.0 0.00   991
 246  H  9  ct1  H  H 6.325E-01  3.311E+00  1.200E+01               -1  1.0 0.00   933
 247  H  9  ct1  H  C 6.325E-01  3.311E+00  1.200E+01               -1  1.0 0.00   944
 248  H  9  ct1  H  O 6.325E-01  3.311E+00  1.200E+01               -1  1.0 0.00   955
 249  H  9  ct1  C  C 6.325E-01  3.311E+00  1.200E+01               -1  1.0 0.00   966
 250  H  9  ct1  C  O 6.325E-01  3.311E+00  1.200E+01               -1  1.0 0.00   977
 251  H  9  ct1  O  O 6.325E-01  3.311E+00  1.200E+01               -1  1.0 0.00   988
 252  H  9  ct1  H  H 6.325E-01  3.311E+00  1.200E+01                1  1.0 0.00   934
 253  H  9  ct1  H  C 6.325E-01  3.311E+00  1.200E+01                1  1.0 0.00   945
 254  H  9  ct1  H  O 6.325E-01  3.311E+00  1.200E+01                1  1.0 0.00   956
 255  H  9  ct1  C  C 6.325E-01  3.311E+00  1.200E+01                1  1.0 0.00   967
 256  H  9  ct1  C  O 6.325E-01  3.311E+00  1.200E+01                1  1.0 0.00   978
 257  H  9  ct1  O  O 6.325E-01  3.311E+00  1.200E+01                1  1.0 0.00   989
 258  H  9  ct1  H  H 1.204E+00  2.400E+00  1.200E+01               -1  1.0 0.00   931
 259  H  9  ct1  H  C 1.204E+00  2.400E+00  1.200E+01               -1  1.0 0.00   942
 260  H  9  ct1  H  O 1.204E+00  2.400E+00  1.200E+01               -1  1.0 0.00   953
 261  H  9  ct1  C  C 1.204E+00  2.400E+00  1.200E+01               -1  1.0 0.00   964
 262  H  9  ct1  C  O 1.204E+00  2.400E+00  1.200E+01               -1  1.0 0.00   975
 263  H  9  ct1  O  O 1.204E+00  2.400E+00  1.200E+01               -1  1.0 0.00   986
 264  H  9  ct1  H  H 1.204E+00  2.400E+00  1.200E+01                1  1.0 0.00   932
 265  H  9  ct1  H  C 1.204E+00  2.400E+00  1.200E+01                1  1.0 0.00   943
 266  H  9  ct1  H  O 1.204E+00  2.400E+00  1.200E+01                1  1.0 0.00   954
 267  H  9  ct1  C  C 1.204E+00  2.400E+00  1.200E+01                1  1.0 0.00   965
 268  H  9  ct1  C  O 1.204E+00  2.400E+00  1.200E+01                1  1.0 0.00   976
 269  H  9  ct1  O  O 1.204E+00  2.400E+00  1.200E+01                1  1.0 0.00   987
-------------------------------------------------------------------------------------------------
Short range atomic symmetry functions element  C :
-------------------------------------------------------------------------------------------------
 ind ec tp sbtp e1 e2       eta      rs/rl         rc   angl   angr la zeta    a    ln
-------------------------------------------------------------------------------------------------
   1  C  2  ct1  H    6.944E-03  0.000E+00  1.200E+01                       0.00   174
   2  C  2  ct1  C    6.944E-03  0.000E+00  1.200E+01                       0.00   180
   3  C  2  ct1  O    6.944E-03  0.000E+00  1.200E+01                       0.00   186
   4  C  2  ct1  H    1.389E-02  0.000E+00  1.200E+01                       0.00   175
   5  C  2  ct1  C    1.389E-02  0.000E+00  1.200E+01                       0.00   181
   6  C  2  ct1  O    1.389E-02  0.000E+00  1.200E+01                       0.00   187
   7  C  2  ct1  H    2.778E-02  0.000E+00  1.200E+01                       0.00   176
   8  C  2  ct1  C    2.778E-02  0.000E+00  1.200E+01                       0.00   182
   9  C  2  ct1  O    2.778E-02  0.000E+00  1.200E+01                       0.00   188
  10  C  2  ct1  H    5.556E-02  0.000E+00  1.200E+01                       0.00   177
  11  C  2  ct1  C    5.556E-02  0.000E+00  1.200E+01                       0.00   183
  12  C  2  ct1  O    5.556E-02  0.000E+00  1.200E+01                       0.00   189
  13  C  2  ct1  H    9.168E-02  8.697E+00  1.200E+01                       0.00   671
  14  C  2  ct1  C    9.168E-02  8.697E+00  1.200E+01                       0.00   677
  15  C  2  ct1  O    9.168E-02  8.697E+00  1.200E+01                       0.00   683
  16  C  2  ct1  H    1.111E-01  0.000E+00  1.200E+01                       0.00   178
  17  C  2  ct1  C    1.111E-01  0.000E+00  1.200E+01                       0.00   184
  18  C  2  ct1  O    1.111E-01  0.000E+00  1.200E+01                       0.00   190
  19  C  2  ct1  H    1.745E-01  6.304E+00  1.200E+01                       0.00   670
  20  C  2  ct1  C    1.745E-01  6.304E+00  1.200E+01                       0.00   676
  21  C  2  ct1  O    1.745E-01  6.304E+00  1.200E+01                       0.00   682
  22  C  2  ct1  H    3.322E-01  4.569E+00  1.200E+01                       0.00   669
  23  C  2  ct1  C    3.322E-01  4.569E+00  1.200E+01                       0.00   675
  24  C  2  ct1  O    3.322E-01  4.569E+00  1.200E+01                       0.00   681
  25  C  2  ct1  H    6.325E-01  3.311E+00  1.200E+01                       0.00   668
  26  C  2  ct1  C    6.325E-01  3.311E+00  1.200E+01                       0.00   674
  27  C  2  ct1  O    6.325E-01  3.311E+00  1.200E+01                       0.00   680
  28  C  2  ct1  H    1.204E+00  2.400E+00  1.200E+01                       0.00   667
  29  C  2  ct1  C    1.204E+00  2.400E+00  1.200E+01                       0.00   673
  30  C  2  ct1  O    1.204E+00  2.400E+00  1.200E+01                       0.00   679
  31  C  3  ct1  H  H 6.944E-03  0.000E+00  1.200E+01               -1  1.0 0.00   291
  32  C  3  ct1  H  C 6.944E-03  0.000E+00  1.200E+01               -1  1.0 0.00   302
  33  C  3  ct1  H  O 6.944E-03  0.000E+00  1.200E+01               -1  1.0 0.00   313
  34  C  3  ct1  C  C 6.944E-03  0.000E+00  1.200E+01               -1  1.0 0.00   324
  35  C  3  ct1  C  O 6.944E-03  0.000E+00  1.200E+01               -1  1.0 0.00   335
  36  C  3  ct1  O  O 6.944E-03  0.000E+00  1.200E+01               -1  1.0 0.00   346
  37  C  3  ct1  H  H 6.944E-03  0.000E+00  1.200E+01                1  1.0 0.00   292
  38  C  3  ct1  H  C 6.944E-03  0.000E+00  1.200E+01                1  1.0 0.00   303
  39  C  3  ct1  H  O 6.944E-03  0.000E+00  1.200E+01                1  1.0 0.00   314
  40  C  3  ct1  C  C 6.944E-03  0.000E+00  1.200E+01                1  1.0 0.00   325
  41  C  3  ct1  C  O 6.944E-03  0.000E+00  1.200E+01                1  1.0 0.00   336
  42  C  3  ct1  O  O 6.944E-03  0.000E+00  1.200E+01                1  1.0 0.00   347
  43  C  3  ct1  H  H 1.389E-02  0.000E+00  1.200E+01               -1  1.0 0.00   293
  44  C  3  ct1  H  C 1.389E-02  0.000E+00  1.200E+01               -1  1.0 0.00   304
  45  C  3  ct1  H  O 1.389E-02  0.000E+00  1.200E+01               -1  1.0 0.00   315
  46  C  3  ct1  C  C 1.389E-02  0.000E+00  1.200E+01               -1  1.0 0.00   326
  47  C  3  ct1  C  O 1.389E-02  0.000E+00  1.200E+01               -1  1.0 0.00   337
  48  C  3  ct1  O  O 1.389E-02  0.000E+00  1.200E+01               -1  1.0 0.00   348
  49  C  3  ct1  H  H 1.389E-02  0.000E+00  1.200E+01                1  1.0 0.00   294
  50  C  3  ct1  H  C 1.389E-02  0.000E+00  1.200E+01                1  1.0 0.00   305
  51  C  3  ct1  H  O 1.389E-02  0.000E+00  1.200E+01                1  1.0 0.00   316
  52  C  3  ct1  C  C 1.389E-02  0.000E+00  1.200E+01                1  1.0 0.00   327
  53  C  3  ct1  C  O 1.389E-02  0.000E+00  1.200E+01                1  1.0 0.00   338
  54  C  3  ct1  O  O 1.389E-02  0.000E+00  1.200E+01                1  1.0 0.00   349
  55  C  3  ct1  H  H 2.778E-02  0.000E+00  1.200E+01               -1  1.0 0.00   295
  56  C  3  ct1  H  C 2.778E-02  0.000E+00  1.200E+01               -1  1.0 0.00   306
  57  C  3  ct1  H  O 2.778E-02  0.000E+00  1.200E+01               -1  1.0 0.00   317
  58  C  3  ct1  C  C 2.778E-02  0.000E+00  1.200E+01               -1  1.0 0.00   328
  59  C  3  ct1  C  O 2.778E-02  0.000E+00  1.200E+01               -1  1.0 0.00   339
  60  C  3  ct1  O  O 2.778E-02  0.000E+00  1.200E+01               -1  1.0 0.00   350
  61  C  3  ct1  H  H 2.778E-02  0.000E+00  1.200E+01                1  1.0 0.00   296
  62  C  3  ct1  H  C 2.778E-02  0.000E+00  1.200E+01                1  1.0 0.00   307
  63  C  3  ct1  H  O 2.778E-02  0.000E+00  1.200E+01                1  1.0 0.00   318
  64  C  3  ct1  C  C 2.778E-02  0.000E+00  1.200E+01                1  1.0 0.00   329
  65  C  3  ct1  C  O 2.778E-02  0.000E+00  1.200E+01                1  1.0 0.00   340
  66  C  3  ct1  O  O 2.778E-02  0.000E+00  1.200E+01                1  1.0 0.00   351
  67  C  3  ct1  H  H 5.556E-02  0.000E+00  1.200E+01               -1  1.0 0.00   297
  68  C  3  ct1  H  C 5.556E-02  0.000E+00  1.200E+01               -1  1.0 0.00   308
  69  C  3  ct1  H  O 5.556E-02  0.000E+00  1.200E+01               -1  1.0 0.00   319
  70  C  3  ct1  C  C 5.556E-02  0.000E+00  1.200E+01               -1  1.0 0.00   330
  71  C  3  ct1  C  O 5.556E-02  0.000E+00  1.200E+01               -1  1.0 0.00   341
  72  C  3  ct1  O  O 5.556E-02  0.000E+00  1.200E+01               -1  1.0 0.00   352
  73  C  3  ct1  H  H 5.556E-02  0.000E+00  1.200E+01                1  1.0 0.00   298
  74  C  3  ct1  H  C 5.556E-02  0.000E+00  1.200E+01                1  1.0 0.00   309
  75  C  3  ct1  H  O 5.556E-02  0.000E+00  1.200E+01                1  1.0 0.00   320
  76  C  3  ct1  C  C 5.556E-02  0.000E+00  1.200E+01                1  1.0 0.00   331
  77  C  3  ct1  C  O 5.556E-02  0.000E+00  1.200E+01                1  1.0 0.00   342
  78  C  3  ct1  O  O 5.556E-02  0.000E+00  1.200E+01                1  1.0 0.00   353
  79  C  3  ct1  H  H 9.168E-02  8.697E+00  1.200E+01               -1  1.0 0.00   792
  80  C  3  ct1  H  C 9.168E-02  8.697E+00  1.200E+01               -1  1.0 0.00   803
  81  C  3  ct1  H  O 9.168E-02  8.697E+00  1.200E+01               -1  1.0 0.00   814
  82  C  3  ct1  C  C 9.168E-02  8.697E+00  1.200E+01               -1  1.0 0.00   825
  83  C  3  ct1  C  O 9.168E-02  8.697E+00  1.200E+01               -1  1.0 0.00   836
  84  C  3  ct1  O  O 9.168E-02  8.697E+00  1.200E+01               -1  1.0 0.00   847
  85  C  3  ct1  H  H 9.168E-02  8.697E+00  1.200E+01                1  1.0 0.00   793
  86  C  3  ct1  H  C 9.168E-02  8.697E+00  1.200E+01                1  1.0 0.00   804
  87  C  3  ct1  H  O 9.168E-02  8.697E+00  1.200E+01                1  1.0 0.00   815
  88  C  3  ct1  C  C 9.168E-02  8.697E+00  1.200E+01                1  1.0 0.00   826
  89  C  3  ct1  C  O 9.168E-02  8.697E+00  1.200E+01                1  1.0 0.00   837
  90  C  3  ct1  O  O 9.168E-02  8.697E+00  1.200E+01                1  1.0 0.00   848
  91  C  3  ct1  H  H 1.111E-01  0.000E+00  1.200E+01               -1  1.0 0.00   299
  92  C  3  ct1  H  C 1.111E-01  0.000E+00  1.200E+01               -1  1.0 0.00   310
  93  C  3  ct1  H  O 1.111E-01  0.000E+00  1.200E+01               -1  1.0 0.00   321
  94  C  3  ct1  C  C 1.111E-01  0.000E+00  1.200E+01               -1  1.0 0.00   332
  95  C  3  ct1  C  O 1.111E-01  0.000E+00  1.200E+01               -1  1.0 0.00   343
  96  C  3  ct1  O  O 1.111E-01  0.000E+00  1.200E+01               -1  1.0 0.00   354
  97  C  3  ct1  H  H 1.111E-01  0.000E+00  1.200E+01                1  1.0 0.00   300
  98  C  3  ct1  H  C 1.111E-01  0.000E+00  1.200E+01                1  1.0 0.00   311
  99  C  3  ct1  H  O 1.111E-01  0.000E+00  1.200E+01                1  1.0 0.00   322
 100  C  3  ct1  C  C 1.111E-01  0.000E+00  1.200E+01                1  1.0 0.00   333
 101  C  3  ct1  C  O 1.111E-01  0.000E+00  1.200E+01                1  1.0 0.00   344
 102  C  3  ct1  O  O 1.111E-01  0.000E+00  1.200E+01                1  1.0 0.00   355
 103  C  3  ct1  H  H 1.745E-01  6.304E+00  1.200E+01               -1  1.0 0.00   790
 104  C  3  ct1  H  C 1.745E-01  6.304E+00  1.200E+01               -1  1.0 0.00   801
 105  C  3  ct1  H  O 1.745E-01  6.304E+00  1.200E+01               -1  1.0 0.00   812
 106  C  3  ct1  C  C 1.745E-01  6.304E+00  1.200E+01               -1  1.0 0.00   823
 107  C  3  ct1  C  O 1.745E-01  6.304E+00  1.200E+01               -1  1.0 0.00   834
 108  C  3  ct1  O  O 1.745E-01  6.304E+00  1.200E+01               -1  1.0 0.00   845
 109  C  3  ct1  H  H 1.745E-01  6.304E+00  1.200E+01                1  1.0 0.00   791
 110  C  3  ct1  H  C 1.745E-01  6.304E+00  1.200E+01                1  1.0 0.00   802
 111  C  3  ct1  H  O 1.745E-01  6.304E+00  1.200E+01                1  1.0 0.00   813
 112  C  3  ct1  C  C 1.745E-01  6.304E+00  1.200E+01                1  1.0 0.00   824
 113  C  3  ct1  C  O 1.745E-01  6.304E+00  1.200E+01                1  1.0 0.00   835
 114  C  3  ct1  O  O 1.745E-01  6.304E+00  1.200E+01                1  1.0 0.00   846
 115  C  3  ct1  H  H 3.322E-01  4.569E+00  1.200E+01               -1  1.0 0.00   788
 116  C  3  ct1  H  C 3.322E-01  4.569E+00  1.200E+01               -1  1.0 0.00   799
 117  C  3  ct1  H  O 3.322E-01  4.569E+00  1.200E+01               -1  1.0 0.00   810
 118  C  3  ct1  C  C 3.322E-01  4.569E+00  1.200E+01               -1  1.0 0.00   821
 119  C  3  ct1  C  O 3.322E-01  4.569E+00  1.200E+01               -1  1.0 0.00   832
 120  C  3  ct1  O  O 3.322E-01  4.569E+00  1.200E+01               -1  1.0 0.00   843
 121  C  3  ct1  H  H 3.322E-01  4.569E+00  1.200E+01                1  1.0 0.00   789
 122  C  3  ct1  H  C 3.322E-01  4.569E+00  1.200E+01                1  1.0 0.00   800
 123  C  3  ct1  H  O 3.322E-01  4.569E+00  1.200E+01                1  1.0 0.00   811
 124  C  3  ct1  C  C 3.322E-01  4.569E+00  1.200E+01                1  1.0 0.00   822
 125  C  3  ct1  C  O 3.322E-01  4.569E+00  1.200E+01                1  1.0 0.00   833
 126  C  3  ct1  O  O 3.322E-01  4.569E+00  1.200E+01                1  1.0 0.00   844
 127  C  3  ct1  H  H 6.325E-01  3.311E+00  1.200E+01               -1  1.0 0.00   786
 128  C  3  ct1  H  C 6.325E-01  3.311E+00  1.200E+01               -1  1.0 0.00   797
 129  C  3  ct1  H  O 6.325E-01  3.311E+00  1.200E+01               -1  1.0 0.00   808
 130  C  3  ct1  C  C 6.325E-01  3.311E+00  1.200E+01               -1  1.0 0.00   819
 131  C  3  ct1  C  O 6.325E-01  3.311E+00  1.200E+01               -1  1.0 0.00   830
 132  C  3  ct1  O  O 6.325E-01  3.311E+00  1.200E+01               -1  1.0 0.00   841
 133  C  3  ct1  H  H 6.325E-01  3.311E+00  1.200E+01                1  1.0 0.00   787
 134  C  3  ct1  H  C 6.325E-01  3.311E+00  1.200E+01                1  1.0 0.00   798
 135  C  3  ct1  H  O 6.325E-01  3.311E+00  1.200E+01                1  1.0 0.00   809
 136  C  3  ct1  C  C 6.325E-01  3.311E+00  1.200E+01                1  1.0 0.00   820
 137  C  3  ct1  C  O 6.325E-01  3.311E+00  1.200E+01                1  1.0 0.00   831
 138  C  3  ct1  O  O 6.325E-01  3.311E+00  1.200E+01                1  1.0 0.00   842
 139  C  3  ct1  H  H 1.204E+00  2.400E+00  1.200E+01               -1  1.0 0.00   784
 140  C  3  ct1  H  C 1.204E+00  2.400E+00  1.200E+01               -1  1.0 0.00   795
 141  C  3  ct1  H  O 1.204E+00  2.400E+00  1.200E+01               -1  1.0 0.00   806
 142  C  3  ct1  C  C 1.204E+00  2.400E+00  1.200E+01               -1  1.0 0.00   817
 143  C  3  ct1  C  O 1.204E+00  2.400E+00  1.200E+01               -1  1.0 0.00   828
 144  C  3  ct1  H  H 1.204E+00  2.400E+00  1.200E+01                1  1.0 0.00   785
 145  C  3  ct1  H  C 1.204E+00  2.400E+00  1.200E+01                1  1.0 0.00   796
 146  C  3  ct1  H  O 1.204E+00  2.400E+00  1.200E+01                1  1.0 0.00   807
 147  C  3  ct1  C  C 1.204E+00  2.400E+00  1.200E+01                1  1.0 0.00   818
 148  C  3  ct1  C  O 1.204E+00  2.400E+00  1.200E+01                1  1.0 0.00   829
 149  C  9  ct1  H  H 6.944E-03  0.000E+00  1.200E+01               -1  1.0 0.00   504
 150  C  9  ct1  H  C 6.944E-03  0.000E+00  1.200E+01               -1  1.0 0.00   515
 151  C  9  ct1  H  O 6.944E-03  0.000E+00  1.200E+01               -1  1.0 0.00   526
 152  C  9  ct1  C  C 6.944E-03  0.000E+00  1.200E+01               -1  1.0 0.00   537
 153  C  9  ct1  C  O 6.944E-03  0.000E+00  1.200E+01               -1  1.0 0.00   548
 154  C  9  ct1  O  O 6.944E-03  0.000E+00  1.200E+01               -1  1.0 0.00   559
 155  C  9  ct1  H  H 6.944E-03  0.000E+00  1.200E+01                1  1.0 0.00   505
 156  C  9  ct1  H  C 6.944E-03  0.000E+00  1.200E+01                1  1.0 0.00   516
 157  C  9  ct1  H  O 6.944E-03  0.000E+00  1.200E+01                1  1.0 0.00   527
 158  C  9  ct1  C  C 6.944E-03  0.000E+00  1.200E+01                1  1.0 0.00   538
 159  C  9  ct1  C  O 6.944E-03  0.000E+00  1.200E+01                1  1.0 0.00   549
 160  C  9  ct1  O  O 6.944E-03  0.000E+00  1.200E+01                1  1.0 0.00   560
 161  C  9  ct1  H  H 1.389E-02  0.000E+00  1.200E+01               -1  1.0 0.00   506
 162  C  9  ct1  H  C 1.389E-02  0.000E+00  1.200E+01               -1  1.0 0.00   517
 163  C  9  ct1  H  O 1.389E-02  0.000E+00  1.200E+01               -1  1.0 0.00   528
 164  C  9  ct1  C  C 1.389E-02  0.000E+00  1.200E+01               -1  1.0 0.00   539
 165  C  9  ct1  C  O 1.389E-02  0.000E+00  1.200E+01               -1  1.0 0.00   550
 166  C  9  ct1  O  O 1.389E-02  0.000E+00  1.200E+01               -1  1.0 0.00   561
 167  C  9  ct1  H  H 1.389E-02  0.000E+00  1.200E+01                1  1.0 0.00   507
 168  C  9  ct1  H  C 1.389E-02  0.000E+00  1.200E+01                1  1.0 0.00   518
 169  C  9  ct1  H  O 1.389E-02  0.000E+00  1.200E+01                1  1.0 0.00   529
 170  C  9  ct1  C  C 1.389E-02  0.000E+00  1.200E+01                1  1.0 0.00   540
 171  C  9  ct1  C  O 1.389E-02  0.000E+00  1.200E+01                1  1.0 0.00   551
 172  C  9  ct1  O  O 1.389E-02  0.000E+00  1.200E+01                1  1.0 0.00   562
 173  C  9  ct1  H  H 2.778E-02  0.000E+00  1.200E+01               -1  1.0 0.00   508
 174  C  9  ct1  H  C 2.778E-02  0.000E+00  1.200E+01               -1  1.0 0.00   519
 175  C  9  ct1  H  O 2.778E-02  0.000E+00  1.200E+01               -1  1.0 0.00   530
 176  C  9  ct1  C  C 2.778E-02  0.000E+00  1.200E+01               -1  1.0 0.00   541
 177  C  9  ct1  C  O 2.778E-02  0.000E+00  1.200E+01               -1  1.0 0.00   552
 178  C  9  ct1  O  O 2.778E-02  0.000E+00  1.200E+01               -1  1.0 0.00   563
 179  C  9  ct1  H  H 2.778E-02  0.000E+00  1.200E+01                1  1.0 0.00   509
 180  C  9  ct1  H  C 2.778E-02  0.000E+00  1.200E+01                1  1.0 0.00   520
 181  C  9  ct1  H  O 2.778E-02  0.000E+00  1.200E+01                1  1.0 0.00   531
 182  C  9  ct1  C  C 2.778E-02  0.000E+00  1.200E+01                1  1.0 0.00   542
 183  C  9  ct1  C  O 2.778E-02  0.000E+00  1.200E+01                1  1.0 0.00   553
 184  C  9  ct1  O  O 2.778E-02  0.000E+00  1.200E+01                1  1.0 0.00   564
 185  C  9  ct1  H  H 5.556E-02  0.000E+00  1.200E+01               -1  1.0 0.00   510
 186  C  9  ct1  H  C 5.556E-02  0.000E+00  1.200E+01               -1  1.0 0.00   521
 187  C  9  ct1  H  O 5.556E-02  0.000E+00  1.200E+01               -1  1.0 0.00   532
 188  C  9  ct1  C  C 5.556E-02  0.000E+00  1.200E+01               -1  1.0 0.00   543
 189  C  9  ct1  C  O 5.556E-02  0.000E+00  1.200E+01               -1  1.0 0.00   554
 190  C  9  ct1  O  O 5.556E-02  0.000E+00  1.200E+01               -1  1.0 0.00   565
 191  C  9  ct1  H  H 5.556E-02  0.000E+00  1.200E+01                1  1.0 0.00   511
 192  C  9  ct1  H  C 5.556E-02  0.000E+00  1.200E+01                1  1.0 0.00   522
 193  C  9  ct1  H  O 5.556E-02  0.000E+00  1.200E+01                1  1.0 0.00   533
 194  C  9  ct1  C  C 5.556E-02  0.000E+00  1.200E+01                1  1.0 0.00   544
 195  C  9  ct1  C  O 5.556E-02  0.000E+00  1.200E+01                1  1.0 0.00   555
 196  C  9  ct1  O  O 5.556E-02  0.000E+00  1.200E+01                1  1.0 0.00   566
 197  C  9  ct1  H  H 9.168E-02  8.697E+00  1.200E+01               -1  1.0 0.00  1005
 198  C  9  ct1  H  C 9.168E-02  8.697E+00  1.200E+01               -1  1.0 0.00  1016
 199  C  9  ct1  H  O 9.168E-02  8.697E+00  1.200E+01               -1  1.0 0.00  1027
 200  C  9  ct1  C  C 9.168E-02  8.697E+00  1.200E+01               -1  1.0 0.00  1038
 201  C  9  ct1  C  O 9.168E-02  8.697E+00  1.200E+01               -1  1.0 0.00  1049
 202  C  9  ct1  O  O 9.168E-02  8.697E+00  1.200E+01               -1  1.0 0.00  1060
 203  C  9  ct1  H  H 9.168E-02  8.697E+00  1.200E+01                1  1.0 0.00  1006
 204  C  9  ct1  H  C 9.168E-02  8.697E+00  1.200E+01                1  1.0 0.00  1017
 205  C  9  ct1  H  O 9.168E-02  8.697E+00  1.200E+01                1  1.0 0.00  1028
 206  C  9  ct1  C  C 9.168E-02  8.697E+00  1.200E+01                1  1.0 0.00  1039
 207  C  9  ct1  C  O 9.168E-02  8.697E+00  1.200E+01                1  1.0 0.00  1050
 208  C  9  ct1  O  O 9.168E-02  8.697E+00  1.200E+01                1  1.0 0.00  1061
 209  C  9  ct1  H  H 1.111E-01  0.000E+00  1.200E+01               -1  1.0 0.00   512
 210  C  9  ct1  H  C 1.111E-01  0.000E+00  1.200E+01               -1  1.0 0.00   523
 211  C  9  ct1  H  O 1.111E-01  0.000E+00  1.200E+01               -1  1.0 0.00   534
 212  C  9  ct1  C  C 1.111E-01  0.000E+00  1.200E+01               -1  1.0 0.00   545
 213  C  9  ct1  C  O 1.111E-01  0.000E+00  1.200E+01               -1  1.0 0.00   556
 214  C  9  ct1  O  O 1.111E-01  0.000E+00  1.200E+01               -1  1.0 0.00   567
 215  C  9  ct1  H  H 1.111E-01  0.000E+00  1.200E+01                1  1.0 0.00   513
 216  C  9  ct1  H  C 1.111E-01  0.000E+00  1.200E+01                1  1.0 0.00   524
 217  C  9  ct1  H  O 1.111E-01  0.000E+00  1.200E+01                1  1.0 0.00   535
 218  C  9  ct1  C  C 1.111E-01  0.000E+00  1.200E+01                1  1.0 0.00   546
 219  C  9  ct1  C  O 1.111E-01  0.000E+00  1.200E+01                1  1.0 0.00   557
 220  C  9  ct1  O  O 1.111E-01  0.000E+00  1.200E+01                1  1.0 0.00   568
 221  C  9  ct1  H  H 1.745E-01  6.304E+00  1.200E+01               -1  1.0 0.00  1003
 222  C  9  ct1  H  C 1.745E-01  6.304E+00  1.200E+01               -1  1.0 0.00  1014
 223  C  9  ct1  H  O 1.745E-01  6.304E+00  1.200E+01               -1  1.0 0.00  1025
 224  C  9  ct1  C  C 1.745E-01  6.304E+00  1.200E+01               -1  1.0 0.00  1036
 225  C  9  ct1  C  O 1.745E-01  6.304E+00  1.200E+01               -1  1.0 0.00  1047
 226  C  9  ct1  O  O 1.745E-01  6.304E+00  1.200E+01               -1  1.0 0.00  1058
 227  C  9  ct1  H  H 1.745E-01  6.304E+00  1.200E+01                1  1.0 0.00  1004
 228  C  9  ct1  H  C 1.745E-01  6.304E+00  1.200E+01                1  1.0 0.00  1015
 229  C  9  ct1  H  O 1.745E-01  6.304E+00  1.200E+01                1  1.0 0.00  1026
 230  C  9  ct1  C  C 1.745E-01  6.304E+00  1.200E+01                1  1.0 0.00  1037
 231  C  9  ct1  C  O 1.745E-01  6.304E+00  1.200E+01                1  1.0 0.00  1048
 232  C  9  ct1  O  O 1.745E-01  6.304E+00  1.200E+01                1  1.0 0.00  1059
 233  C  9  ct1  H  H 3.322E-01  4.569E+00  1.200E+01               -1  1.0 0.00  1001
 234  C  9  ct1  H  C 3.322E-01  4.569E+00  1.200E+01               -1  1.0 0.00  1012
 235  C  9  ct1  H  O 3.322E-01  4.569E+00  1.200E+01               -1  1.0 0.00  1023
 236  C  9  ct1  C  C 3.322E-01  4.569E+00  1.200E+01               -1  1.0 0.00  1034
 237  C  9  ct1  C  O 3.322E-01  4.569E+00  1.200E+01               -1  1.0 0.00  1045
 238  C  9  ct1  O  O 3.322E-01  4.569E+00  1.200E+01               -1  1.0 0.00  1056
 239  C  9  ct1  H  H 3.322E-01  4.569E+00  1.200E+01                1  1.0 0.00  1002
 240  C  9  ct1  H  C 3.322E-01  4.569E+00  1.200E+01                1  1.0 0.00  1013
 241  C  9  ct1  H  O 3.322E-01  4.569E+00  1.200E+01                1  1.0 0.00  1024
 242  C  9  ct1  C  C 3.322E-01  4.569E+00  1.200E+01                1  1.0 0.00  1035
 243  C  9  ct1  C  O 3.322E-01  4.569E+00  1.200E+01                1  1.0 0.00  1046
 244  C  9  ct1  O  O 3.322E-01  4.569E+00  1.200E+01                1  1.0 0.00  1057
 245  C  9  ct1  H  H 6.325E-01  3.311E+00  1.200E+01               -1  1.0 0.00   999
 246  C  9  ct1  H  C 6.325E-01  3.311E+00  1.200E+01               -1  1.0 0.00  1010
 247  C  9  ct1  H  O 6.325E-01  3.311E+00  1.200E+01               -1  1.0 0.00  1021
 248  C  9  ct1  C  C 6.325E-01  3.311E+00  1.200E+01               -1  1.0 0.00  1032
 249  C  9  ct1  C  O 6.325E-01  3.311E+00  1.200E+01               -1  1.0 0.00  1043
 250  C  9  ct1  O  O 6.325E-01  3.311E+00  1.200E+01               -1  1.0 0.00  1054
 251  C  9  ct1  H  H 6.325E-01  3.311E+00  1.200E+01                1  1.0 0.00  1000
 252  C  9  ct1  H  C 6.325E-01  3.311E+00  1.200E+01                1  1.0 0.00  1011
 253  C  9  ct1  H  O 6.325E-01  3.311E+00  1.200E+01                1  1.0 0.00  1022
 254  C  9  ct1  C  C 6.325E-01  3.311E+00  1.200E+01                1  1.0 0.00  1033
 255  C  9  ct1  C  O 6.325E-01  3.311E+00  1.200E+01                1  1.0 0.00  1044
 256  C  9  ct1  O  O 6.325E-01  3.311E+00  1.200E+01                1  1.0 0.00  1055
 257  C  9  ct1  H  H 1.204E+00  2.400E+00  1.200E+01               -1  1.0 0.00   997
 258  C  9  ct1  H  C 1.204E+00  2.400E+00  1.200E+01               -1  1.0 0.00  1008
 259  C  9  ct1  H  O 1.204E+00  2.400E+00  1.200E+01               -1  1.0 0.00  1019
 260  C  9  ct1  C  C 1.204E+00  2.400E+00  1.200E+01               -1  1.0 0.00  1030
 261  C  9  ct1  C  O 1.204E+00  2.400E+00  1.200E+01               -1  1.0 0.00  1041
 262  C  9  ct1  H  H 1.204E+00  2.400E+00  1.200E+01                1  1.0 0.00   998
 263  C  9  ct1  H  C 1.204E+00  2.400E+00  1.200E+01                1  1.0 0.00  1009
 264  C  9  ct1  H  O 1.204E+00  2.400E+00  1.200E+01                1  1.0 0.00  1020
 265  C  9  ct1  C  C 1.204E+00  2.400E+00  1.200E+01                1  1.0 0.00  1031
 266  C  9  ct1  C  O 1.204E+00  2.400E+00  1.200E+01                1  1.0 0.00  1042
-------------------------------------------------------------------------------------------------
Short range atomic symmetry functions element  O :
-------------------------------------------------------------------------------------------------
 ind ec tp sbtp e1 e2       eta      rs/rl         rc   angl   angr la zeta    a    ln
-------------------------------------------------------------------------------------------------
   1  O  2  ct1  H    6.944E-03  0.000E+00  1.200E+01                       0.00   192
   2  O  2  ct1  C    6.944E-03  0.000E+00  1.200E+01                       0.00   198
   3  O  2  ct1  O    6.944E-03  0.000E+00  1.200E+01                       0.00   204
   4  O  2  ct1  H    1.389E-02  0.000E+00  1.200E+01                       0.00   193
   5  O  2  ct1  C    1.389E-02  0.000E+00  1.200E+01                       0.00   199
   6  O  2  ct1  O    1.389E-02  0.000E+00  1.200E+01                       0.00   205
   7  O  2  ct1  H    2.778E-02  0.000E+00  1.200E+01                       0.00   194
   8  O  2  ct1  C    2.778E-02  0.000E+00  1.200E+01                       0.00   200
   9  O  2  ct1  O    2.778E-02  0.000E+00  1.200E+01                       0.00   206
  10  O  2  ct1  H    5.556E-02  0.000E+00  1.200E+01                       0.00   195
  11  O  2  ct1  C    5.556E-02  0.000E+00  1.200E+01                       0.00   201
  12  O  2  ct1  O    5.556E-02  0.000E+00  1.200E+01                       0.00   207
  13  O  2  ct1  H    9.168E-02  8.697E+00  1.200E+01                       0.00   689
  14  O  2  ct1  C    9.168E-02  8.697E+00  1.200E+01                       0.00   695
  15  O  2  ct1  O    9.168E-02  8.697E+00  1.200E+01                       0.00   701
  16  O  2  ct1  H    1.111E-01  0.000E+00  1.200E+01                       0.00   196
  17  O  2  ct1  C    1.111E-01  0.000E+00  1.200E+01                       0.00   202
  18  O  2  ct1  O    1.111E-01  0.000E+00  1.200E+01                       0.00   208
  19  O  2  ct1  H    1.745E-01  6.304E+00  1.200E+01                       0.00   688
  20  O  2  ct1  C    1.745E-01  6.304E+00  1.200E+01                       0.00   694
  21  O  2  ct1  O    1.745E-01  6.304E+00  1.200E+01                       0.00   700
  22  O  2  ct1  H    3.322E-01  4.569E+00  1.200E+01                       0.00   687
  23  O  2  ct1  C    3.322E-01  4.569E+00  1.200E+01                       0.00   693
  24  O  2  ct1  O    3.322E-01  4.569E+00  1.200E+01                       0.00   699
  25  O  2  ct1  H    6.325E-01  3.311E+00  1.200E+01                       0.00   686
  26  O  2  ct1  C    6.325E-01  3.311E+00  1.200E+01                       0.00   692
  27  O  2  ct1  O    6.325E-01  3.311E+00  1.200E+01                       0.00   698
  28  O  2  ct1  H    1.204E+00  2.400E+00  1.200E+01                       0.00   685
  29  O  2  ct1  C    1.204E+00  2.400E+00  1.200E+01                       0.00   691
  30  O  2  ct1  O    1.204E+00  2.400E+00  1.200E+01                       0.00   697
  31  O  3  ct1  H  H 6.944E-03  0.000E+00  1.200E+01               -1  1.0 0.00   357
  32  O  3  ct1  H  C 6.944E-03  0.000E+00  1.200E+01               -1  1.0 0.00   368
  33  O  3  ct1  H  O 6.944E-03  0.000E+00  1.200E+01               -1  1.0 0.00   379
  34  O  3  ct1  C  C 6.944E-03  0.000E+00  1.200E+01               -1  1.0 0.00   390
  35  O  3  ct1  C  O 6.944E-03  0.000E+00  1.200E+01               -1  1.0 0.00   401
  36  O  3  ct1  O  O 6.944E-03  0.000E+00  1.200E+01               -1  1.0 0.00   412
  37  O  3  ct1  H  H 6.944E-03  0.000E+00  1.200E+01                1  1.0 0.00   358
  38  O  3  ct1  H  C 6.944E-03  0.000E+00  1.200E+01                1  1.0 0.00   369
  39  O  3  ct1  H  O 6.944E-03  0.000E+00  1.200E+01                1  1.0 0.00   380
  40  O  3  ct1  C  C 6.944E-03  0.000E+00  1.200E+01                1  1.0 0.00   391
  41  O  3  ct1  C  O 6.944E-03  0.000E+00  1.200E+01                1  1.0 0.00   402
  42  O  3  ct1  O  O 6.944E-03  0.000E+00  1.200E+01                1  1.0 0.00   413
  43  O  3  ct1  H  H 1.389E-02  0.000E+00  1.200E+01               -1  1.0 0.00   359
  44  O  3  ct1  H  C 1.389E-02  0.000E+00  1.200E+01               -1  1.0 0.00   370
  45  O  3  ct1  H  O 1.389E-02  0.000E+00  1.200E+01               -1  1.0 0.00   381
  46  O  3  ct1  C  C 1.389E-02  0.000E+00  1.200E+01               -1  1.0 0.00   392
  47  O  3  ct1  C  O 1.389E-02  0.000E+00  1.200E+01               -1  1.0 0.00   403
  48  O  3  ct1  O  O 1.389E-02  0.000E+00  1.200E+01               -1  1.0 0.00   414
  49  O  3  ct1  H  H 1.389E-02  0.000E+00  1.200E+01                1  1.0 0.00   360
  50  O  3  ct1  H  C 1.389E-02  0.000E+00  1.200E+01                1  1.0 0.00   371
  51  O  3  ct1  H  O 1.389E-02  0.000E+00  1.200E+01                1  1.0 0.00   382
  52  O  3  ct1  C  C 1.389E-02  0.000E+00  1.200E+01                1  1.0 0.00   393
  53  O  3  ct1  C  O 1.389E-02  0.000E+00  1.200E+01                1  1.0 0.00   404
  54  O  3  ct1  O  O 1.389E-02  0.000E+00  1.200E+01                1  1.0 0.00   415
  55  O  3  ct1  H  H 2.778E-02  0.000E+00  1.200E+01               -1  1.0 0.00   361
  56  O  3  ct1  H  C 2.778E-02  0.000E+00  1.200E+01               -1  1.0 0.00   372
  57  O  3  ct1  H  O 2.778E-02  0.000E+00  1.200E+01               -1  1.0 0.00   383
  58  O  3  ct1  C  C 2.778E-02  0.000E+00  1.200E+01               -1  1.0 0.00   394
  59  O  3  ct1  C  O 2.778E-02  0.000E+00  1.200E+01               -1  1.0 0.00   405
  60  O  3  ct1  O  O 2.778E-02  0.000E+00  1.200E+01               -1  1.0 0.00   416
  61  O  3  ct1  H  H 2.778E-02  0.000E+00  1.200E+01                1  1.0 0.00   362
  62  O  3  ct1  H  C 2.778E-02  0.000E+00  1.200E+01                1  1.0 0.00   373
  63  O  3  ct1  H  O 2.778E-02  0.000E+00  1.200E+01                1  1.0 0.00   384
  64  O  3  ct1  C  C 2.778E-02  0.000E+00  1.200E+01                1  1.0 0.00   395
  65  O  3  ct1  C  O 2.778E-02  0.000E+00  1.200E+01                1  1.0 0.00   406
  66  O  3  ct1  O  O 2.778E-02  0.000E+00  1.200E+01                1  1.0 0.00   417
  67  O  3  ct1  H  H 5.556E-02  0.000E+00  1.200E+01               -1  1.0 0.00   363
  68  O  3  ct1  H  C 5.556E-02  0.000E+00  1.200E+01               -1  1.0 0.00   374
  69  O  3  ct1  H  O 5.556E-02  0.000E+00  1.200E+01               -1  1.0 0.00   385
  70  O  3  ct1  C  C 5.556E-02  0.000E+00  1.200E+01               -1  1.0 0.00   396
  71  O  3  ct1  C  O 5.556E-02  0.000E+00  1.200E+01               -1  1.0 0.00   407
  72  O  3  ct1  O  O 5.556E-02  0.000E+00  1.200E+01               -1  1.0 0.00   418
  73  O  3  ct1  H  H 5.556E-02  0.000E+00  1.200E+01                1  1.0 0.00   364
  74  O  3  ct1  H  C 5.556E-02  0.000E+00  1.200E+01                1  1.0 0.00   375
  75  O  3  ct1  H  O 5.556E-02  0.000E+00  1.200E+01                1  1.0 0.00   386
  76  O  3  ct1  C  C 5.556E-02  0.000E+00  1.200E+01                1  1.0 0.00   397
  77  O  3  ct1  C  O 5.556E-02  0.000E+00  1.200E+01                1  1.0 0.00   408
  78  O  3  ct1  O  O 5.556E-02  0.000E+00  1.200E+01                1  1.0 0.00   419
  79  O  3  ct1  H  H 9.168E-02  8.697E+00  1.200E+01               -1  1.0 0.00   858
  80  O  3  ct1  H  C 9.168E-02  8.697E+00  1.200E+01               -1  1.0 0.00   869
  81  O  3  ct1  H  O 9.168E-02  8.697E+00  1.200E+01               -1  1.0 0.00   880
  82  O  3  ct1  C  C 9.168E-02  8.697E+00  1.200E+01               -1  1.0 0.00   891
  83  O  3  ct1  C  O 9.168E-02  8.697E+00  1.200E+01               -1  1.0 0.00   902
  84  O  3  ct1  O  O 9.168E-02  8.697E+00  1.200E+01               -1  1.0 0.00   913
  85  O  3  ct1  H  H 9.168E-02  8.697E+00  1.200E+01                1  1.0 0.00   859
  86  O  3  ct1  H  C 9.168E-02  8.697E+00  1.200E+01                1  1.0 0.00   870
  87  O  3  ct1  H  O 9.168E-02  8.697E+00  1.200E+01                1  1.0 0.00   881
  88  O  3  ct1  C  C 9.168E-02  8.697E+00  1.200E+01                1  1.0 0.00   892
  89  O  3  ct1  C  O 9.168E-02  8.697E+00  1.200E+01                1  1.0 0.00   903
  90  O  3  ct1  O  O 9.168E-02  8.697E+00  1.200E+01                1  1.0 0.00   914
  91  O  3  ct1  H  H 1.111E-01  0.000E+00  1.200E+01               -1  1.0 0.00   365
  92  O  3  ct1  H  C 1.111E-01  0.000E+00  1.200E+01               -1  1.0 0.00   376
  93  O  3  ct1  H  O 1.111E-01  0.000E+00  1.200E+01               -1  1.0 0.00   387
  94  O  3  ct1  C  C 1.111E-01  0.000E+00  1.200E+01               -1  1.0 0.00   398
  95  O  3  ct1  C  O 1.111E-01  0.000E+00  1.200E+01               -1  1.0 0.00   409
  96  O  3  ct1  H  H 1.111E-01  0.000E+00  1.200E+01                1  1.0 0.00   366
  97  O  3  ct1  H  C 1.111E-01  0.000E+00  1.200E+01                1  1.0 0.00   377
  98  O  3  ct1  H  O 1.111E-01  0.000E+00  1.200E+01                1  1.0 0.00   388
  99  O  3  ct1  C  C 1.111E-01  0.000E+00  1.200E+01                1  1.0 0.00   399
 100  O  3  ct1  C  O 1.111E-01  0.000E+00  1.200E+01                1  1.0 0.00   410
 101  O  3  ct1  O  O 1.111E-01  0.000E+00  1.200E+01                1  1.0 0.00   421
 102  O  3  ct1  H  H 1.745E-01  6.304E+00  1.200E+01               -1  1.0 0.00   856
 103  O  3  ct1  H  C 1.745E-01  6.304E+00  1.200E+01               -1  1.0 0.00   867
 104  O  3  ct1  H  O 1.745E-01  6.304E+00  1.200E+01               -1  1.0 0.00   878
 105  O  3  ct1  C  C 1.745E-01  6.304E+00  1.200E+01               -1  1.0 0.00   889
 106  O  3  ct1  C  O 1.745E-01  6.304E+00  1.200E+01               -1  1.0 0.00   900
 107  O  3  ct1  O  O 1.745E-01  6.304E+00  1.200E+01               -1  1.0 0.00   911
 108  O  3  ct1  H  H 1.745E-01  6.304E+00  1.200E+01                1  1.0 0.00   857
 109  O  3  ct1  H  C 1.745E-01  6.304E+00  1.200E+01                1  1.0 0.00   868
 110  O  3  ct1  H  O 1.745E-01  6.304E+00  1.200E+01                1  1.0 0.00   879
 111  O  3  ct1  C  C 1.745E-01  6.304E+00  1.200E+01                1  1.0 0.00   890
 112  O  3  ct1  C  O 1.745E-01  6.304E+00  1.200E+01                1  1.0 0.00   901
 113  O  3  ct1  O  O 1.745E-01  6.304E+00  1.200E+01                1  1.0 0.00   912
 114  O  3  ct1  H  H 3.322E-01  4.569E+00  1.200E+01               -1  1.0 0.00   854
 115  O  3  ct1  H  C 3.322E-01  4.569E+00  1.200E+01               -1  1.0 0.00   865
 116  O  3  ct1  H  O 3.322E-01  4.569E+00  1.200E+01               -1  1.0 0.00   876
 117  O  3  ct1  C  C 3.322E-01  4.569E+00  1.200E+01               -1  1.0 0.00   887
 118  O  3  ct1  C  O 3.322E-01  4.569E+00  1.200E+01               -1  1.0 0.00   898
 119  O  3  ct1  O  O 3.322E-01  4.569E+00  1.200E+01               -1  1.0 0.00   909
 120  O  3  ct1  H  H 3.322E-01  4.569E+00  1.200E+01                1  1.0 0.00   855
 121  O  3  ct1  H  C 3.322E-01  4.569E+00  1.200E+01                1  1.0 0.00   866
 122  O  3  ct1  H  O 3.322E-01  4.569E+00  1.200E+01                1  1.0 0.00   877
 123  O  3  ct1  C  C 3.322E-01  4.569E+00  1.200E+01                1  1.0 0.00   888
 124  O  3  ct1  C  O 3.322E-01  4.569E+00  1.200E+01                1  1.0 0.00   899
 125  O  3  ct1  O  O 3.322E-01  4.569E+00  1.200E+01                1  1.0 0.00   910
 126  O  3  ct1  H  H 6.325E-01  3.311E+00  1.200E+01               -1  1.0 0.00   852
 127  O  3  ct1  H  C 6.325E-01  3.311E+00  1.200E+01               -1  1.0 0.00   863
 128  O  3  ct1  H  O 6.325E-01  3.311E+00  1.200E+01               -1  1.0 0.00   874
 129  O  3  ct1  C  C 6.325E-01  3.311E+00  1.200E+01               -1  1.0 0.00   885
 130  O  3  ct1  C  O 6.325E-01  3.311E+00  1.200E+01               -1  1.0 0.00   896
 131  O  3  ct1  O  O 6.325E-01  3.311E+00  1.200E+01               -1  1.0 0.00   907
 132  O  3  ct1  H  H 6.325E-01  3.311E+00  1.200E+01                1  1.0 0.00   853
 133  O  3  ct1  H  C 6.325E-01  3.311E+00  1.200E+01                1  1.0 0.00   864
 134  O  3  ct1  H  O 6.325E-01  3.311E+00  1.200E+01                1  1.0 0.00   875
 135  O  3  ct1  C  C 6.325E-01  3.311E+00  1.200E+01                1  1.0 0.00   886
 136  O  3  ct1  C  O 6.325E-01  3.311E+00  1.200E+01                1  1.0 0.00   897
 137  O  3  ct1  O  O 6.325E-01  3.311E+00  1.200E+01                1  1.0 0.00   908
 138  O  3  ct1  H  H 1.204E+00  2.400E+00  1.200E+01               -1  1.0 0.00   850
 139  O  3  ct1  H  C 1.204E+00  2.400E+00  1.200E+01               -1  1.0 0.00   861
 140  O  3  ct1  C  C 1.204E+00  2.400E+00  1.200E+01               -1  1.0 0.00   883
 141  O  3  ct1  H  H 1.204E+00  2.400E+00  1.200E+01                1  1.0 0.00   851
 142  O  3  ct1  H  C 1.204E+00  2.400E+00  1.200E+01                1  1.0 0.00   862
 143  O  3  ct1  H  O 1.204E+00  2.400E+00  1.200E+01                1  1.0 0.00   873
 144  O  3  ct1  C  C 1.204E+00  2.400E+00  1.200E+01                1  1.0 0.00   884
 145  O  9  ct1  H  H 6.944E-03  0.000E+00  1.200E+01               -1  1.0 0.00   570
 146  O  9  ct1  H  C 6.944E-03  0.000E+00  1.200E+01               -1  1.0 0.00   581
 147  O  9  ct1  H  O 6.944E-03  0.000E+00  1.200E+01               -1  1.0 0.00   592
 148  O  9  ct1  C  C 6.944E-03  0.000E+00  1.200E+01               -1  1.0 0.00   603
 149  O  9  ct1  C  O 6.944E-03  0.000E+00  1.200E+01               -1  1.0 0.00   614
 150  O  9  ct1  O  O 6.944E-03  0.000E+00  1.200E+01               -1  1.0 0.00   625
 151  O  9  ct1  H  H 6.944E-03  0.000E+00  1.200E+01                1  1.0 0.00   571
 152  O  9  ct1  H  C 6.944E-03  0.000E+00  1.200E+01                1  1.0 0.00   582
 153  O  9  ct1  H  O 6.944E-03  0.000E+00  1.200E+01                1  1.0 0.00   593
 154  O  9  ct1  C  C 6.944E-03  0.000E+00  1.200E+01                1  1.0 0.00   604
 155  O  9  ct1  C  O 6.944E-03  0.000E+00  1.200E+01                1  1.0 0.00   615
 156  O  9  ct1  O  O 6.944E-03  0.000E+00  1.200E+01                1  1.0 0.00   626
 157  O  9  ct1  H  H 1.389E-02  0.000E+00  1.200E+01               -1  1.0 0.00   572
 158  O  9  ct1  H  C 1.389E-02  0.000E+00  1.200E+01               -1  1.0 0.00   583
 159  O  9  ct1  H  O 1.389E-02  0.000E+00  1.200E+01               -1  1.0 0.00   594
 160  O  9  ct1  C  C 1.389E-02  0.000E+00  1.200E+01               -1  1.0 0.00   605
 161  O  9  ct1  C  O 1.389E-02  0.000E+00  1.200E+01               -1  1.0 0.00   616
 162  O  9  ct1  O  O 1.389E-02  0.000E+00  1.200E+01               -1  1.0 0.00   627
 163  O  9  ct1  H  H 1.389E-02  0.000E+00  1.200E+01                1  1.0 0.00   573
 164  O  9  ct1  H  C 1.389E-02  0.000E+00  1.200E+01                1  1.0 0.00   584
 165  O  9  ct1  H  O 1.389E-02  0.000E+00  1.200E+01                1  1.0 0.00   595
 166  O  9  ct1  C  C 1.389E-02  0.000E+00  1.200E+01                1  1.0 0.00   606
 167  O  9  ct1  C  O 1.389E-02  0.000E+00  1.200E+01                1  1.0 0.00   617
 168  O  9  ct1  O  O 1.389E-02  0.000E+00  1.200E+01                1  1.0 0.00   628
 169  O  9  ct1  H  H 2.778E-02  0.000E+00  1.200E+01               -1  1.0 0.00   574
 170  O  9  ct1  H  C 2.778E-02  0.000E+00  1.200E+01               -1  1.0 0.00   585
 171  O  9  ct1  H  O 2.778E-02  0.000E+00  1.200E+01               -1  1.0 0.00   596
 172  O  9  ct1  C  C 2.778E-02  0.000E+00  1.200E+01               -1  1.0 0.00   607
 173  O  9  ct1  C  O 2.778E-02  0.000E+00  1.200E+01               -1  1.0 0.00   618
 174  O  9  ct1  O  O 2.778E-02  0.000E+00  1.200E+01               -1  1.0 0.00   629
 175  O  9  ct1  H  H 2.778E-02  0.000E+00  1.200E+01                1  1.0 0.00   575
 176  O  9  ct1  H  C 2.778E-02  0.000E+00  1.200E+01                1  1.0 0.00   586
 177  O  9  ct1  H  O 2.778E-02  0.000E+00  1.200E+01                1  1.0 0.00   597
 178  O  9  ct1  C  C 2.778E-02  0.000E+00  1.200E+01                1  1.0 0.00   608
 179  O  9  ct1  C  O 2.778E-02  0.000E+00  1.200E+01                1  1.0 0.00   619
 180  O  9  ct1  O  O 2.778E-02  0.000E+00  1.200E+01                1  1.0 0.00   630
 181  O  9  ct1  H  H 5.556E-02  0.000E+00  1.200E+01               -1  1.0 0.00   576
 182  O  9  ct1  H  C 5.556E-02  0.000E+00  1.200E+01               -1  1.0 0.00   587
 183  O  9  ct1  H  O 5.556E-02  0.000E+00  1.200E+01               -1  1.0 0.00   598
 184  O  9  ct1  C  C 5.556E-02  0.000E+00  1.200E+01               -1  1.0 0.00   609
 185  O  9  ct1  C  O 5.556E-02  0.000E+00  1.200E+01               -1  1.0 0.00   620
 186  O  9  ct1  O  O 5.556E-02  0.000E+00  1.200E+01               -1  1.0 0.00   631
 187  O  9  ct1  H  H 5.556E-02  0.000E+00  1.200E+01                1  1.0 0.00   577
 188  O  9  ct1  H  C 5.556E-02  0.000E+00  1.200E+01                1  1.0 0.00   588
 189  O  9  ct1  H  O 5.556E-02  0.000E+00  1.200E+01                1  1.0 0.00   599
 190  O  9  ct1  C  C 5.556E-02  0.000E+00  1.200E+01                1  1.0 0.00   610
 191  O  9  ct1  C  O 5.556E-02  0.000E+00  1.200E+01                1  1.0 0.00   621
 192  O  9  ct1  O  O 5.556E-02  0.000E+00  1.200E+01                1  1.0 0.00   632
 193  O  9  ct1  H  H 9.168E-02  8.697E+00  1.200E+01               -1  1.0 0.00  1071
 194  O  9  ct1  H  C 9.168E-02  8.697E+00  1.200E+01               -1  1.0 0.00  1082
 195  O  9  ct1  H  O 9.168E-02  8.697E+00  1.200E+01               -1  1.0 0.00  1093
 196  O  9  ct1  C  C 9.168E-02  8.697E+00  1.200E+01               -1  1.0 0.00  1104
 197  O  9  ct1  C  O 9.168E-02  8.697E+00  1.200E+01               -1  1.0 0.00  1115
 198  O  9  ct1  O  O 9.168E-02  8.697E+00  1.200E+01               -1  1.0 0.00  1126
 199  O  9  ct1  H  H 9.168E-02  8.697E+00  1.200E+01                1  1.0 0.00  1072
 200  O  9  ct1  H  C 9.168E-02  8.697E+00  1.200E+01                1  1.0 0.00  1083
 201  O  9  ct1  H  O 9.168E-02  8.697E+00  1.200E+01                1  1.0 0.00  1094
 202  O  9  ct1  C  C 9.168E-02  8.697E+00  1.200E+01                1  1.0 0.00  1105
 203  O  9  ct1  C  O 9.168E-02  8.697E+00  1.200E+01                1  1.0 0.00  1116
 204  O  9  ct1  O  O 9.168E-02  8.697E+00  1.200E+01                1  1.0 0.00  1127
 205  O  9  ct1  H  H 1.111E-01  0.000E+00  1.200E+01               -1  1.0 0.00   578
 206  O  9  ct1  H  C 1.111E-01  0.000E+00  1.200E+01               -1  1.0 0.00   589
 207  O  9  ct1  H  O 1.111E-01  0.000E+00  1.200E+01               -1  1.0 0.00   600
 208  O  9  ct1  C  C 1.111E-01  0.000E+00  1.200E+01               -1  1.0 0.00   611
 209  O  9  ct1  C  O 1.111E-01  0.000E+00  1.200E+01               -1  1.0 0.00   622
 210  O  9  ct1  O  O 1.111E-01  0.000E+00  1.200E+01               -1  1.0 0.00   633
 211  O  9  ct1  H  H 1.111E-01  0.000E+00  1.200E+01                1  1.0 0.00   579
 212  O  9  ct1  H  C 1.111E-01  0.000E+00  1.200E+01                1  1.0 0.00   590
 213  O  9  ct1  H  O 1.111E-01  0.000E+00  1.200E+01                1  1.0 0.00   601
 214  O  9  ct1  C  C 1.111E-01  0.000E+00  1.200E+01                1  1.0 0.00   612
 215  O  9  ct1  C  O 1.111E-01  0.000E+00  1.200E+01                1  1.0 0.00   623
 216  O  9  ct1  O  O 1.111E-01  0.000E+00  1.200E+01                1  1.0 0.00   634
 217  O  9  ct1  H  H 1.745E-01  6.304E+00  1.200E+01               -1  1.0 0.00  1069
 218  O  9  ct1  H  C 1.745E-01  6.304E+00  1.200E+01               -1  1.0 0.00  1080
 219  O  9  ct1  H  O 1.745E-01  6.304E+00  1.200E+01               -1  1.0 0.00  1091
 220  O  9  ct1  C  C 1.745E-01  6.304E+00  1.200E+01               -1  1.0 0.00  1102
 221  O  9  ct1  C  O 1.745E-01  6.304E+00  1.200E+01               -1  1.0 0.00  1113
 222  O  9  ct1  O  O 1.745E-01  6.304E+00  1.200E+01               -1  1.0 0.00  1124
 223  O  9  ct1  H  H 1.745E-01  6.304E+00  1.200E+01                1  1.0 0.00  1070
 224  O  9  ct1  H  C 1.745E-01  6.304E+00  1.200E+01                1  1.0 0.00  1081
 225  O  9  ct1  H  O 1.745E-01  6.304E+00  1.200E+01                1  1.0 0.00  1092
 226  O  9  ct1  C  C 1.745E-01  6.304E+00  1.200E+01                1  1.0 0.00  1103
 227  O  9  ct1  C  O 1.745E-01  6.304E+00  1.200E+01                1  1.0 0.00  1114
 228  O  9  ct1  O  O 1.745E-01  6.304E+00  1.200E+01                1  1.0 0.00  1125
 229  O  9  ct1  H  H 3.322E-01  4.569E+00  1.200E+01               -1  1.0 0.00  1067
 230  O  9  ct1  H  C 3.322E-01  4.569E+00  1.200E+01               -1  1.0 0.00  1078
 231  O  9  ct1  H  O 3.322E-01  4.569E+00  1.200E+01               -1  1.0 0.00  1089
 232  O  9  ct1  C  C 3.322E-01  4.569E+00  1.200E+01               -1  1.0 0.00  1100
 233  O  9  ct1  C  O 3.322E-01  4.569E+00  1.200E+01               -1  1.0 0.00  1111
 234  O  9  ct1  O  O 3.322E-01  4.569E+00  1.200E+01               -1  1.0 0.00  1122
 235  O  9  ct1  H  H 3.322E-01  4.569E+00  1.200E+01                1  1.0 0.00  1068
 236  O  9  ct1  H  C 3.322E-01  4.569E+00  1.200E+01                1  1.0 0.00  1079
 237  O  9  ct1  H  O 3.322E-01  4.569E+00  1.200E+01                1  1.0 0.00  1090
 238  O  9  ct1  C  C 3.322E-01  4.569E+00  1.200E+01                1  1.0 0.00  1101
 239  O  9  ct1  C  O 3.322E-01  4.569E+00  1.200E+01                1  1.0 0.00  1112
 240  O  9  ct1  O  O 3.322E-01  4.569E+00  1.200E+01                1  1.0 0.00  1123
 241  O  9  ct1  H  H 6.325E-01  3.311E+00  1.200E+01               -1  1.0 0.00  1065
 242  O  9  ct1  H  C 6.325E-01  3.311E+00  1.200E+01               -1  1.0 0.00  1076
 243  O  9  ct1  H  O 6.325E-01  3.311E+00  1.200E+01               -1  1.0 0.00  1087
 244  O  9  ct1  C  C 6.325E-01  3.311E+00  1.200E+01               -1  1.0 0.00  1098
 245  O  9  ct1  C  O 6.325E-01  3.311E+00  1.200E+01               -1  1.0 0.00  1109
 246  O  9  ct1  O  O 6.325E-01  3.311E+00  1.200E+01               -1  1.0 0.00  1120
 247  O  9  ct1  H  H 6.325E-01  3.311E+00  1.200E+01                1  1.0 0.00  1066
 248  O  9  ct1  H  C 6.325E-01  3.311E+00  1.200E+01                1  1.0 0.00  1077
 249  O  9  ct1  H  O 6.325E-01  3.311E+00  1.200E+01                1  1.0 0.00  1088
 250  O  9  ct1  C  C 6.325E-01  3.311E+00  1.200E+01                1  1.0 0.00  1099
 251  O  9  ct1  C  O 6.325E-01  3.311E+00  1.200E+01                1  1.0 0.00  1110
 252  O  9  ct1  O  O 6.325E-01  3.311E+00  1.200E+01                1  1.0 0.00  1121
 253  O  9  ct1  H  H 1.204E+00  2.400E+00  1.200E+01               -1  1.0 0.00  1063
 254  O  9  ct1  H  C 1.204E+00  2.400E+00  1.200E+01               -1  1.0 0.00  1074
 255  O  9  ct1  H  O 1.204E+00  2.400E+00  1.200E+01               -1  1.0 0.00  1085
 256  O  9  ct1  C  C 1.204E+00  2.400E+00  1.200E+01               -1  1.0 0.00  1096
 257  O  9  ct1  C  O 1.204E+00  2.400E+00  1.200E+01               -1  1.0 0.00  1107
 258  O  9  ct1  H  H 1.204E+00  2.400E+00  1.200E+01                1  1.0 0.00  1064
 259  O  9  ct1  H  C 1.204E+00  2.400E+00  1.200E+01                1  1.0 0.00  1075
 260  O  9  ct1  H  O 1.204E+00  2.400E+00  1.200E+01                1  1.0 0.00  1086
 261  O  9  ct1  C  C 1.204E+00  2.400E+00  1.200E+01                1  1.0 0.00  1097
 262  O  9  ct1  C  O 1.204E+00  2.400E+00  1.200E+01                1  1.0 0.00  1108
-------------------------------------------------------------------------------------------------
Minimum cutoff radius for element  H: 12.000000
Minimum cutoff radius for element  C: 12.000000
Minimum cutoff radius for element  O: 12.000000
Maximum cutoff radius (global)      : 12.000000
*******************************************************************************

*** SETUP: SYMMETRY FUNCTION MEMORY *******************************************

Symmetry function derivatives memory table for element  H :
-------------------------------------------------------------------------------
Relevant symmetry functions for neighbors with element:
-  H:  130 of  269 ( 48.3 %)
-  C:  130 of  269 ( 48.3 %)
-  O:  129 of  269 ( 48.0 %)
-------------------------------------------------------------------------------
Symmetry function derivatives memory table for element  C :
-------------------------------------------------------------------------------
Relevant symmetry functions for neighbors with element:
-  H:  130 of  266 ( 48.9 %)
-  C:  130 of  266 ( 48.9 %)
-  O:  126 of  266 ( 47.4 %)
-------------------------------------------------------------------------------
Symmetry function derivatives memory table for element  O :
-------------------------------------------------------------------------------
Relevant symmetry functions for neighbors with element:
-  H:  129 of  262 ( 49.2 %)
-  C:  128 of  262 ( 48.9 %)
-  O:  122 of  262 ( 46.6 %)
-------------------------------------------------------------------------------
*******************************************************************************

*** SETUP: SYMMETRY FUNCTION CACHE ********************************************

Element  H: in total 6 caches, used 129.67 times on average.
Element  C: in total 6 caches, used 128.67 times on average.
Element  O: in total 6 caches, used 126.33 times on average.
*******************************************************************************

*** SETUP: SYMMETRY FUNCTION GROUPS *******************************************

Abbreviations:
--------------
ind .... Symmetry function index.
ec ..... Central atom element.
tp ..... Symmetry function type.
sbtp ... Symmetry function subtype (e.g. cutoff type).
e1 ..... Neighbor 1 element.
e2 ..... Neighbor 2 element.
eta .... Gaussian width eta.
rs/rl... Shift distance of Gaussian or left cutoff radius for polynomial.
angl.... Left cutoff angle for polynomial.
angr.... Right cutoff angle for polynomial.
la ..... Angle prefactor lambda.
zeta ... Angle term exponent zeta.
rc ..... Cutoff radius / right cutoff radius for polynomial.
a ...... Free parameter alpha (e.g. cutoff alpha).
ln ..... Line number in settings file.
mi ..... Member index.
sfi .... Symmetry function index.
e ...... Recalculate exponential term.

Short range atomic symmetry function groups element  H :
----------------------------------------------------------------------------------------------------------
 ind ec tp sbtp e1 e2       eta      rs/rl         rc   angl   angr la zeta    a    ln   mi  sfi e
----------------------------------------------------------------------------------------------------------
   1  H  2  ct1  H            *          *  1.200E+01                       0.00     *    *    *  
[...]
     247    356.63354   -53062.693            0   -53039.136     12424.98 
     248    358.66937   -53062.878            0   -53039.187    11052.799 
     249    359.46102   -53062.925            0   -53039.182    9175.0703 
### NNP EW SUMMARY ### TS:        250 EW          0 EWPERSTEP  0.000E+00
     250    357.69793   -53062.824            0   -53039.198     8354.991 
     251    355.31442   -53062.646            0   -53039.177    5493.7095 
     252    353.46024    -53062.52            0   -53039.173    6362.6968 
     253    351.41153   -53062.404            0   -53039.193     5210.162 
     254    348.77578   -53062.214            0   -53039.176    4993.8162 
     255    345.66865   -53062.058            0   -53039.226    6694.8766 
     256    343.34036   -53061.889            0    -53039.21    1611.3196 
     257    342.28151   -53061.827            0   -53039.219   -960.16827 
     258    342.06941    -53061.81            0   -53039.215   -2367.1805 
     259     342.6904   -53061.864            0   -53039.229    1114.8668 
### NNP EW SUMMARY ### TS:        260 EW          0 EWPERSTEP  0.000E+00
     260    344.07397   -53061.969            0   -53039.242   -1799.6525 
     261    345.28266   -53062.058            0   -53039.252   -4367.6921 
     262    345.30611   -53062.042            0   -53039.234   -4434.5307 
     263    344.30639   -53062.027            0   -53039.285   -5693.9911 
     264    342.94872   -53061.935            0   -53039.282   -5055.2612 
     265      340.369   -53061.789            0   -53039.307   -1870.6288 
     266    337.87721   -53061.584            0   -53039.266   -1559.9331 
     267     336.7856    -53061.51            0   -53039.265   -522.78243 
     268    336.48108   -53061.498            0   -53039.272   -487.33542 
     269    336.02055   -53061.462            0   -53039.267   -1031.5076 
### NNP EW SUMMARY ### TS:        270 EW          0 EWPERSTEP  0.000E+00
     270    336.12746    -53061.44            0   -53039.238   -3422.4126 
     271    337.72824   -53061.512            0   -53039.204    142.14162 
     272    341.04331   -53061.744            0   -53039.217    1015.2622 
     273    345.53591   -53062.045            0   -53039.222    1589.5778 
     274    349.34097   -53062.288            0   -53039.214    2404.6116 
     275    351.12365   -53062.401            0   -53039.209    1565.2156 
     276    349.25421   -53062.162            0   -53039.093    1504.4227 
     277    346.12399   -53061.964            0   -53039.102    3078.2776 
     278    342.71624   -53061.736            0   -53039.099    3209.6306 
     279    341.34655   -53061.642            0   -53039.095    4231.5565 
### NNP EW SUMMARY ### TS:        280 EW          0 EWPERSTEP  0.000E+00
     280     340.8903   -53061.624            0   -53039.108    8557.5317 
     281    342.89034    -53061.76            0   -53039.111     5745.851 
     282    345.08896   -53061.842            0   -53039.048    4109.1646 
     283    345.63509   -53061.816            0   -53038.986    5998.5796 
     284    346.31282   -53061.887            0   -53039.012    6725.5915 
     285    346.60651   -53061.908            0   -53039.014    5687.0025 
     286    345.72666   -53061.856            0    -53039.02    6558.1303 
     287    344.12736   -53061.717            0   -53038.986    6667.5679 
     288    343.21127   -53061.591            0   -53038.921    5495.1072 
     289    342.72378   -53061.468            0   -53038.831    3685.9051 
### NNP EW SUMMARY ### TS:        290 EW          0 EWPERSTEP  0.000E+00
     290    341.98345   -53061.369            0   -53038.781    7181.6314 
     291    342.64723   -53061.431            0   -53038.799    5824.1277 
     292     344.7537   -53061.559            0   -53038.787    5118.3154 
     293    346.84045   -53061.697            0   -53038.787    5567.9748 
     294    347.63579   -53061.729            0   -53038.767     6326.603 
     295    346.95276   -53061.684            0   -53038.767    7764.3166 
     296    344.96906   -53061.507            0   -53038.721    9421.9828 
     297     344.9144   -53061.489            0   -53038.707    7677.1681 
     298    347.28987   -53061.714            0   -53038.775    5873.6427 
     299     349.9588    -53061.89            0   -53038.775    6140.3246 
### NNP EW SUMMARY ### TS:        300 EW          0 EWPERSTEP  0.000E+00
     300    351.28782   -53061.991            0   -53038.788    6239.5658 
     301    350.47544   -53061.939            0   -53038.789    7889.6518 
     302    348.54919   -53061.779            0   -53038.757    9458.8735 
     303    345.54286   -53061.576            0   -53038.752    10231.554 
     304      341.677   -53061.223            0   -53038.655    6674.5466 
     305    339.24052   -53061.066            0   -53038.659     5716.002 
     306    339.52479   -53061.073            0   -53038.646    6080.4527 
     307    342.13769   -53061.235            0   -53038.636    6995.3051 
     308    344.13586   -53061.467            0   -53038.736     6274.832 
     309    345.09535    -53061.56            0   -53038.765    6819.5936 
### NNP EW SUMMARY ### TS:        310 EW          0 EWPERSTEP  0.000E+00
     310     346.5272   -53061.649            0    -53038.76    6582.3191 
     311    348.01966   -53061.761            0   -53038.774    7139.7958 
     312    349.44315   -53061.871            0   -53038.789    10855.991 
     313    347.55798   -53061.813            0   -53038.856    13012.176 
     314    343.81034   -53061.547            0   -53038.838    18791.902 
     315    342.79365   -53061.516            0   -53038.873    19129.721 
     316    342.48588   -53061.423            0   -53038.801    19633.068 
     317    341.78138   -53061.366            0    -53038.79    18949.319 
     318    342.18804    -53061.39            0   -53038.788    15564.414 
     319    343.48336   -53061.476            0   -53038.789    13549.834 
### NNP EW SUMMARY ### TS:        320 EW          0 EWPERSTEP  0.000E+00
     320    345.84083   -53061.628            0   -53038.784    11828.362 
     321    348.58987   -53061.807            0   -53038.782    10895.745 
     322    350.93194   -53061.948            0   -53038.768     9004.361 
     323    354.59134   -53062.169            0   -53038.747    10027.893 
     324    360.05614   -53062.551            0   -53038.768    10849.768 
     325    362.53142   -53062.704            0   -53038.758    14449.051 
     326    362.42378   -53062.707            0   -53038.768    14654.056 
     327    361.39978    -53062.62            0   -53038.749    15663.602 
     328    360.07173   -53062.529            0   -53038.746    15855.181 
     329    358.11047   -53062.394            0    -53038.74    15878.575 
### NNP EW SUMMARY ### TS:        330 EW          0 EWPERSTEP  0.000E+00
     330    356.41282   -53062.273            0   -53038.731    14962.595 
     331    356.86094   -53062.296            0   -53038.725    15612.841 
     332    360.25536   -53062.534            0   -53038.739     15410.14 
     333    364.98639   -53062.866            0   -53038.758    16200.106 
     334    368.21878   -53063.095            0   -53038.774    13701.838 
     335      367.537   -53063.039            0   -53038.763    11979.706 
     336     363.8328   -53062.805            0   -53038.773     11251.85 
     337    359.41507   -53062.501            0   -53038.761    9854.9789 
     338    355.66584   -53062.236            0   -53038.743    10438.323 
     339    352.92545   -53062.092            0   -53038.781    10917.775 
### NNP EW SUMMARY ### TS:        340 EW          0 EWPERSTEP  0.000E+00
     340    352.37581   -53062.074            0   -53038.799    12205.361 
     341    354.71565   -53062.235            0   -53038.805    12555.953 
     342    358.54979   -53062.501            0   -53038.818     12858.34 
     343    362.55068   -53062.762            0   -53038.815    11700.329 
     344    366.50291   -53063.005            0   -53038.797    10488.997 
     345    368.54482    -53063.17            0   -53038.827    11155.182 
     346    368.67579    -53063.17            0   -53038.819    11328.832 
     347    369.33749   -53063.211            0   -53038.816    11227.753 
     348    370.50857   -53063.289            0   -53038.816    10927.209 
     349    372.03419   -53063.399            0   -53038.825    9926.4328 
### NNP EW SUMMARY ### TS:        350 EW          0 EWPERSTEP  0.000E+00
     350    374.38367   -53063.538            0    -53038.81    9178.4625 
     351    377.37626   -53063.747            0   -53038.821    7295.2432 
     352    379.43648   -53063.873            0    -53038.81    7833.1479 
     353    379.22392   -53063.861            0   -53038.812    8717.1291 
     354    377.43185   -53063.749            0   -53038.819    11206.508 
     355    374.81908    -53063.57            0   -53038.812    9751.1499 
     356    372.66113   -53063.371            0   -53038.756    11882.482 
     357    372.41075   -53063.379            0   -53038.781     12758.27 
     358    371.55883   -53063.315            0   -53038.772    16410.753 
     359    371.03191   -53063.276            0   -53038.769    16825.852 
### NNP EW SUMMARY ### TS:        360 EW          3 EWPERSTEP  3.000E-01
     360    371.12421    -53063.27            0   -53038.757    13135.799 
     361    369.91238   -53063.194            0    -53038.76    11883.145 
     362    367.63114   -53063.081            0   -53038.798     13422.62 
     363     365.1775   -53062.852            0   -53038.731    11700.403 
     364    362.84044   -53062.711            0   -53038.745    12515.595 
     365     359.5768   -53062.534            0   -53038.783    12889.569 
     366    355.89306   -53062.289            0   -53038.782    11140.388 
     367    351.30051   -53061.996            0   -53038.792    11434.405 
     368     348.1986   -53061.772            0   -53038.773    11859.203 
     369    348.32753   -53061.774            0   -53038.766    13295.942 
### NNP EW SUMMARY ### TS:        370 EW          5 EWPERSTEP  5.000E-01
     370    350.32213   -53061.913            0   -53038.773    13304.435 
     371    353.27749   -53062.117            0   -53038.782    12990.656 
     372    357.15421   -53062.381            0    -53038.79    10466.396 
     373    361.30305   -53062.688            0   -53038.823    11729.621 
     374    364.30239    -53062.88            0   -53038.818    11980.911 
     375    366.39465   -53063.032            0    -53038.83    10928.104 
     376    366.42204   -53062.982            0   -53038.779    9956.5418 
     377    365.74059   -53062.928            0    -53038.77    9253.8653 
     378    366.11984   -53062.965            0   -53038.782    11178.663 
     379    367.21004   -53063.046            0   -53038.791    8846.4359 
### NNP EW SUMMARY ### TS:        380 EW          9 EWPERSTEP  9.000E-01
     380    369.38868   -53063.181            0   -53038.782    9859.8762 
     381    372.60787   -53063.378            0   -53038.767    9688.8313 
     382    376.08048   -53063.614            0   -53038.773    11189.031 
     383    378.62005   -53063.778            0    -53038.77    11617.207 
     384    381.01253   -53063.954            0   -53038.787    11906.935 
     385    383.65279   -53064.084            0   -53038.743    14063.424 
     386    384.04456   -53064.116            0   -53038.749    13637.936 
     387    381.87546   -53063.951            0   -53038.727    13294.028 
     388    378.58679    -53063.75            0   -53038.744    14297.859 
     389    374.56832   -53063.453            0   -53038.712    16564.102 
### NNP EW SUMMARY ### TS:        390 EW          1 EWPERSTEP  1.000E-01
     390    371.71848   -53063.279            0   -53038.727    14527.395 
     391    369.99771    -53063.17            0   -53038.731    13305.851 
     392    368.10711   -53063.051            0   -53038.737    10080.541 
     393    365.47499   -53062.863            0   -53038.723    5623.1103 
     394    363.98947   -53062.752            0    -53038.71    5713.1714 
     395    363.79127   -53062.738            0   -53038.709     4625.385 
     396    363.64347   -53062.724            0   -53038.705    4010.8186 
     397    362.80932   -53062.686            0   -53038.722    6417.7437 
     398    360.69088   -53062.511            0   -53038.686    8428.8108 
     399    360.38748   -53062.513            0   -53038.709    6770.4159 
### NNP EW SUMMARY ### TS:        400 EW          1 EWPERSTEP  1.000E-01
     400    361.82291   -53062.599            0     -53038.7     7126.761 
     401    363.84624   -53062.755            0   -53038.722    8869.6916 
     402    364.93769   -53062.817            0   -53038.712    8954.7747 
     403    365.22361   -53062.837            0   -53038.714     10638.18 
     404    365.49643   -53062.851            0    -53038.71    11046.132 
     405    365.86179   -53062.868            0   -53038.702    9470.5205 
     406    365.53585   -53062.832            0   -53038.688    9095.7968 
     407    364.30964   -53062.728            0   -53038.665    8499.2448 
     408    363.84028     -53062.7            0   -53038.667    11957.553 
     409    364.38021   -53062.739            0   -53038.671    10961.341 
### NNP EW SUMMARY ### TS:        410 EW         14 EWPERSTEP  1.400E+00
     410    363.79823   -53062.715            0   -53038.685    11232.568 
     411    362.01607   -53062.606            0   -53038.694    8057.5373 
     412    361.32099   -53062.531            0   -53038.665    9641.3212 
     413    364.43854    -53062.75            0   -53038.678    8691.2178 
     414    368.27501   -53063.026            0   -53038.701    6463.5674 
     415    371.50151   -53063.234            0   -53038.695    7376.2561 
     416    373.66487   -53063.367            0   -53038.686    7294.5932 
     417    374.66635   -53063.388            0   -53038.641    9644.9843 
     418     376.5606   -53063.528            0   -53038.656    9049.8011 
     419    377.88456   -53063.603            0   -53038.643    8570.6395 
### NNP EW SUMMARY ### TS:        420 EW         21 EWPERSTEP  2.100E+00
     420    380.36089   -53063.756            0   -53038.633    11169.824 
     421    382.83505   -53063.936            0   -53038.649    14088.414 
     422    383.50385   -53063.977            0   -53038.646    12621.178 
     423    383.16692   -53063.951            0   -53038.642    15616.929 
     424    381.89844   -53063.879            0   -53038.654    16517.827 
     425    379.22416   -53063.675            0   -53038.626    16049.724 
     426    375.97495   -53063.471            0   -53038.637    15404.444 
     427     372.5472   -53063.233            0   -53038.625    16158.675 
     428    369.21087   -53063.027            0    -53038.64    15890.458 
     429    365.64897   -53062.774            0   -53038.622    14775.514 
### NNP EW SUMMARY ### TS:        430 EW         14 EWPERSTEP  1.400E+00
     430    363.65905   -53062.628            0   -53038.607    13507.608 
     431    363.99978   -53062.657            0   -53038.614     13109.33 
     432     364.7555   -53062.716            0   -53038.624    13482.261 
     433    364.56434   -53062.694            0   -53038.614    11975.058 
     434    364.72328   -53062.693            0   -53038.602    11010.389 
     435    366.43942   -53062.816            0   -53038.612    11326.402 
     436     369.1503   -53062.992            0   -53038.609    11090.978 
     437    371.38246   -53063.142            0   -53038.612    10253.365 
     438     373.4228   -53063.274            0   -53038.608    7500.9298 
     439     374.4622   -53063.362            0   -53038.628    7834.3094 
### NNP EW SUMMARY ### TS:        440 EW          6 EWPERSTEP  6.000E-01
     440    373.55213   -53063.279            0   -53038.605    10019.842 
     441    371.47041   -53063.138            0   -53038.602    7960.1288 
     442    369.38267   -53062.989            0   -53038.591    6648.8977 
     443    368.99159   -53062.964            0   -53038.592    7401.3563 
     444    371.45829   -53063.137            0   -53038.601    5952.7253 
     445    375.40866   -53063.419            0   -53038.622      8962.41 
     446    377.51023   -53063.562            0   -53038.626    8771.8849 
     447    375.73468   -53063.442            0   -53038.624    8371.5109 
     448    370.32052   -53063.097            0   -53038.636    8164.3829 
     449    362.61645   -53062.567            0   -53038.616      6427.66 
### NNP EW SUMMARY ### TS:        450 EW          6 EWPERSTEP  6.000E-01
     450    356.11533   -53062.108            0   -53038.586    4160.9369 
     451    352.57392   -53061.871            0   -53038.583    2043.6186 
     452    351.58944   -53061.798            0   -53038.575   -1061.2914 
     453    353.27117   -53061.932            0   -53038.598   -1381.8756 
     454    359.58465   -53061.978            0   -53038.227    19669.552 
     455    383.12087    -53062.55            0   -53037.244    1315.4183 
     456    385.88834   -53062.706            0   -53037.217    1242.0807 
     457    385.55632   -53062.691            0   -53037.225     5221.601 
     458    383.10118   -53062.525            0   -53037.221    3006.9155 
     459     380.2509   -53062.326            0    -53037.21    2673.9478 
### NNP EW SUMMARY ### TS:        460 EW         19 EWPERSTEP  1.900E+00
     460    378.47822    -53062.21            0   -53037.211    4891.7961 
     461    378.63988   -53062.176            0   -53037.166    6920.5587 
     462    381.81608   -53062.396            0   -53037.177    6672.3777 
     463    387.75822   -53062.795            0   -53037.183    9174.5192 
     464    394.40269   -53063.244            0   -53037.193    11029.414 
     465    397.97454   -53063.479            0   -53037.192    15152.834 
     466    400.63677   -53063.516            0   -53037.053    10439.276 
     467    397.25862   -53063.271            0   -53037.031    10186.595 
     468    393.57008   -53062.976            0    -53036.98     8545.302 
     469    390.86361   -53062.854            0   -53037.037    4077.5286 
### NNP EW SUMMARY ### TS:        470 EW         28 EWPERSTEP  2.800E+00
     470    386.53675   -53062.538            0   -53037.006    2557.7098 
     471     387.6618   -53062.595            0   -53036.989    6021.0506 
     472    387.10396   -53062.625            0   -53037.057     7750.555 
     473     382.9979   -53062.202            0   -53036.904    12072.125 
     474    382.85459   -53062.166            0   -53036.877    15425.555 
     475    387.17604    -53062.28            0   -53036.707    8154.0709 
     476    385.51221   -53062.103            0   -53036.639    6510.2087 
     477    383.54874   -53062.002            0   -53036.668    6978.5323 
     478    378.95606   -53061.702            0   -53036.671    2688.8777 
     479    374.06098   -53061.397            0   -53036.689    2984.0627 
### NNP EW SUMMARY ### TS:        480 EW         30 EWPERSTEP  3.000E+00
     480    372.71752     -53061.3            0   -53036.682    3476.6276 
     481    374.48241   -53061.421            0   -53036.686     4944.843 
     482    378.72465   -53061.685            0   -53036.669    4505.1386 
     483    384.57477   -53062.111            0   -53036.709    9036.0153 
     484    389.15771     -53062.4            0   -53036.696    8371.6327 
ERROR on proc 15: Too many extrapolation warnings (src/USER-NNP/pair_nnp.cpp:409)
