LAMMPS (29 Oct 2020)
Reading data file ...
  orthogonal box = (0.0000000 0.0000000 0.0000000) to (17.712844 17.712844 17.712844)
  2 by 3 by 4 MPI processor grid
  reading atoms ...
  512 atoms
  read_data CPU = 0.005 seconds

*******************************************************************************

WELCOME TO n²p², A SOFTWARE PACKAGE FOR NEURAL NETWORK POTENTIALS!
------------------------------------------------------------------

n²p² version  (from git): v2.1.4-1-gb45aafc
             (version.h): v2.1.4
------------------------------------------------------------
Git branch              : master
Git revision            : b45aafc12292c43ea4f575379cb9fcaf5cf20a1d
Compile date/time       : Jun 16 2021 17:18:47
------------------------------------------------------------

Features/Flags:
------------------------------------------------------------
Symmetry function groups     : enabled
Symmetry function cache      : enabled
Timing function available    : available
Asymmetric polynomial SFs    : available
SF low neighbor number check : enabled
SF derivative memory layout  : reduced
MPI explicitly disabled      : no
------------------------------------------------------------

Please cite the following papers when publishing results obtained with n²p²:
-------------------------------------------------------------------------------
 * General citation for n²p² and the LAMMPS interface:

 Singraber, A.; Behler, J.; Dellago, C.
 Library-Based LAMMPS Implementation of High-Dimensional
 Neural Network Potentials.
 J. Chem. Theory Comput. 2019 15 (3), 1827–1840.
 https://doi.org/10.1021/acs.jctc.8b00770
-------------------------------------------------------------------------------
 * Additionally, if you use the NNP training features of n²p²:

 Singraber, A.; Morawietz, T.; Behler, J.; Dellago, C.
 Parallel Multistream Training of High-Dimensional Neural
 Network Potentials.
 J. Chem. Theory Comput. 2019, 15 (5), 3075–3092.
 https://doi.org/10.1021/acs.jctc.8b01092
-------------------------------------------------------------------------------
 * Additionally, if polynomial symmetry functions are used:

 Bircher, M. P.; Singraber, A.; Dellago, C.
 Improved Description of Atomic Environments Using Low-Cost
 Polynomial Functions with Compact Support.
 arXiv:2010.14414 [cond-mat, physics:physics] 2020.
 https://arxiv.org/abs/2010.14414
*******************************************************************************

*** SETUP: SETTINGS FILE ******************************************************

Settings file name: ../lammps/nnp/input.nn
Read 1128 lines.
Found 852 lines with keywords.
This settings file defines a short-range only NNP.
*******************************************************************************

*** SETUP: NORMALIZATION ******************************************************

Data set normalization is used.
Mean energy per atom     :  -2.9490687253024300E-01
Conversion factor energy :   1.3307681597740063E+03
Conversion factor length :   3.4249466430307962E+01

Atomic energy offsets are used in addition to data set normalization.
Offsets will be subtracted from reference energies BEFORE normalization is applied.
*******************************************************************************

*** SETUP: ELEMENT MAP ********************************************************

Number of element strings found: 3
Element  0:  H (  1)
Element  1:  C (  6)
Element  2:  O (  8)
*******************************************************************************

*** SETUP: ELEMENTS ***********************************************************

Number of elements is consistent: 3
Atomic energy offsets per element:
Element  0:  -3.75123083E-01
Element  1:  -5.33572749E+00
Element  2:  -1.58336174E+01
Energy offsets are automatically subtracted from reference energies.
*******************************************************************************

*** SETUP: CUTOFF FUNCTIONS ***************************************************

Parameter alpha for inner cutoff: 0.000000
Inner cutoff = Symmetry function cutoff * alpha
Equal cutoff function type for all symmetry functions:
CutoffFunction::CT_COS (1)
x := (r - rc * alpha) / (rc - rc * alpha)
f(x) = 1/2 * (cos(pi*x) + 1)
*******************************************************************************

*** SETUP: SYMMETRY FUNCTIONS *************************************************

Abbreviations:
--------------
ind .... Symmetry function index.
ec ..... Central atom element.
tp ..... Symmetry function type.
sbtp ... Symmetry function subtype (e.g. cutoff type).
e1 ..... Neighbor 1 element.
e2 ..... Neighbor 2 element.
eta .... Gaussian width eta.
rs/rl... Shift distance of Gaussian or left cutoff radius for polynomial.
angl.... Left cutoff angle for polynomial.
angr.... Right cutoff angle for polynomial.
la ..... Angle prefactor lambda.
zeta ... Angle term exponent zeta.
rc ..... Cutoff radius / right cutoff radius for polynomial.
a ...... Free parameter alpha (e.g. cutoff alpha).
ln ..... Line number in settings file.

Short range atomic symmetry functions element  H :
-------------------------------------------------------------------------------------------------
 ind ec tp sbtp e1 e2       eta      rs/rl         rc   angl   angr la zeta    a    ln
-------------------------------------------------------------------------------------------------
   1  H  2  ct1  H    6.944E-03  0.000E+00  1.200E+01                       0.00   156
   2  H  2  ct1  C    6.944E-03  0.000E+00  1.200E+01                       0.00   162
   3  H  2  ct1  O    6.944E-03  0.000E+00  1.200E+01                       0.00   168
   4  H  2  ct1  H    1.389E-02  0.000E+00  1.200E+01                       0.00   157
   5  H  2  ct1  C    1.389E-02  0.000E+00  1.200E+01                       0.00   163
   6  H  2  ct1  O    1.389E-02  0.000E+00  1.200E+01                       0.00   169
   7  H  2  ct1  H    2.778E-02  0.000E+00  1.200E+01                       0.00   158
   8  H  2  ct1  C    2.778E-02  0.000E+00  1.200E+01                       0.00   164
   9  H  2  ct1  O    2.778E-02  0.000E+00  1.200E+01                       0.00   170
  10  H  2  ct1  H    5.556E-02  0.000E+00  1.200E+01                       0.00   159
  11  H  2  ct1  C    5.556E-02  0.000E+00  1.200E+01                       0.00   165
  12  H  2  ct1  O    5.556E-02  0.000E+00  1.200E+01                       0.00   171
  13  H  2  ct1  H    9.168E-02  8.697E+00  1.200E+01                       0.00   653
  14  H  2  ct1  C    9.168E-02  8.697E+00  1.200E+01                       0.00   659
  15  H  2  ct1  O    9.168E-02  8.697E+00  1.200E+01                       0.00   665
  16  H  2  ct1  H    1.111E-01  0.000E+00  1.200E+01                       0.00   160
  17  H  2  ct1  C    1.111E-01  0.000E+00  1.200E+01                       0.00   166
  18  H  2  ct1  O    1.111E-01  0.000E+00  1.200E+01                       0.00   172
  19  H  2  ct1  H    1.745E-01  6.304E+00  1.200E+01                       0.00   652
  20  H  2  ct1  C    1.745E-01  6.304E+00  1.200E+01                       0.00   658
  21  H  2  ct1  O    1.745E-01  6.304E+00  1.200E+01                       0.00   664
  22  H  2  ct1  H    3.322E-01  4.569E+00  1.200E+01                       0.00   651
  23  H  2  ct1  C    3.322E-01  4.569E+00  1.200E+01                       0.00   657
  24  H  2  ct1  O    3.322E-01  4.569E+00  1.200E+01                       0.00   663
  25  H  2  ct1  H    6.325E-01  3.311E+00  1.200E+01                       0.00   650
  26  H  2  ct1  C    6.325E-01  3.311E+00  1.200E+01                       0.00   656
  27  H  2  ct1  O    6.325E-01  3.311E+00  1.200E+01                       0.00   662
  28  H  2  ct1  H    1.204E+00  2.400E+00  1.200E+01                       0.00   649
  29  H  2  ct1  C    1.204E+00  2.400E+00  1.200E+01                       0.00   655
  30  H  2  ct1  O    1.204E+00  2.400E+00  1.200E+01                       0.00   661
  31  H  3  ct1  H  H 6.944E-03  0.000E+00  1.200E+01               -1  1.0 0.00   225
  32  H  3  ct1  H  C 6.944E-03  0.000E+00  1.200E+01               -1  1.0 0.00   236
  33  H  3  ct1  H  O 6.944E-03  0.000E+00  1.200E+01               -1  1.0 0.00   247
  34  H  3  ct1  C  C 6.944E-03  0.000E+00  1.200E+01               -1  1.0 0.00   258
  35  H  3  ct1  C  O 6.944E-03  0.000E+00  1.200E+01               -1  1.0 0.00   269
  36  H  3  ct1  O  O 6.944E-03  0.000E+00  1.200E+01               -1  1.0 0.00   280
  37  H  3  ct1  H  H 6.944E-03  0.000E+00  1.200E+01                1  1.0 0.00   226
  38  H  3  ct1  H  C 6.944E-03  0.000E+00  1.200E+01                1  1.0 0.00   237
  39  H  3  ct1  H  O 6.944E-03  0.000E+00  1.200E+01                1  1.0 0.00   248
  40  H  3  ct1  C  C 6.944E-03  0.000E+00  1.200E+01                1  1.0 0.00   259
  41  H  3  ct1  C  O 6.944E-03  0.000E+00  1.200E+01                1  1.0 0.00   270
  42  H  3  ct1  O  O 6.944E-03  0.000E+00  1.200E+01                1  1.0 0.00   281
  43  H  3  ct1  H  H 1.389E-02  0.000E+00  1.200E+01               -1  1.0 0.00   227
  44  H  3  ct1  H  C 1.389E-02  0.000E+00  1.200E+01               -1  1.0 0.00   238
  45  H  3  ct1  H  O 1.389E-02  0.000E+00  1.200E+01               -1  1.0 0.00   249
  46  H  3  ct1  C  C 1.389E-02  0.000E+00  1.200E+01               -1  1.0 0.00   260
  47  H  3  ct1  C  O 1.389E-02  0.000E+00  1.200E+01               -1  1.0 0.00   271
  48  H  3  ct1  O  O 1.389E-02  0.000E+00  1.200E+01               -1  1.0 0.00   282
  49  H  3  ct1  H  H 1.389E-02  0.000E+00  1.200E+01                1  1.0 0.00   228
  50  H  3  ct1  H  C 1.389E-02  0.000E+00  1.200E+01                1  1.0 0.00   239
  51  H  3  ct1  H  O 1.389E-02  0.000E+00  1.200E+01                1  1.0 0.00   250
  52  H  3  ct1  C  C 1.389E-02  0.000E+00  1.200E+01                1  1.0 0.00   261
  53  H  3  ct1  C  O 1.389E-02  0.000E+00  1.200E+01                1  1.0 0.00   272
  54  H  3  ct1  O  O 1.389E-02  0.000E+00  1.200E+01                1  1.0 0.00   283
  55  H  3  ct1  H  H 2.778E-02  0.000E+00  1.200E+01               -1  1.0 0.00   229
  56  H  3  ct1  H  C 2.778E-02  0.000E+00  1.200E+01               -1  1.0 0.00   240
  57  H  3  ct1  H  O 2.778E-02  0.000E+00  1.200E+01               -1  1.0 0.00   251
  58  H  3  ct1  C  C 2.778E-02  0.000E+00  1.200E+01               -1  1.0 0.00   262
  59  H  3  ct1  C  O 2.778E-02  0.000E+00  1.200E+01               -1  1.0 0.00   273
  60  H  3  ct1  O  O 2.778E-02  0.000E+00  1.200E+01               -1  1.0 0.00   284
  61  H  3  ct1  H  H 2.778E-02  0.000E+00  1.200E+01                1  1.0 0.00   230
  62  H  3  ct1  H  C 2.778E-02  0.000E+00  1.200E+01                1  1.0 0.00   241
  63  H  3  ct1  H  O 2.778E-02  0.000E+00  1.200E+01                1  1.0 0.00   252
  64  H  3  ct1  C  C 2.778E-02  0.000E+00  1.200E+01                1  1.0 0.00   263
  65  H  3  ct1  C  O 2.778E-02  0.000E+00  1.200E+01                1  1.0 0.00   274
  66  H  3  ct1  O  O 2.778E-02  0.000E+00  1.200E+01                1  1.0 0.00   285
  67  H  3  ct1  H  H 5.556E-02  0.000E+00  1.200E+01               -1  1.0 0.00   231
  68  H  3  ct1  H  C 5.556E-02  0.000E+00  1.200E+01               -1  1.0 0.00   242
  69  H  3  ct1  H  O 5.556E-02  0.000E+00  1.200E+01               -1  1.0 0.00   253
  70  H  3  ct1  C  C 5.556E-02  0.000E+00  1.200E+01               -1  1.0 0.00   264
  71  H  3  ct1  C  O 5.556E-02  0.000E+00  1.200E+01               -1  1.0 0.00   275
  72  H  3  ct1  O  O 5.556E-02  0.000E+00  1.200E+01               -1  1.0 0.00   286
  73  H  3  ct1  H  H 5.556E-02  0.000E+00  1.200E+01                1  1.0 0.00   232
  74  H  3  ct1  H  C 5.556E-02  0.000E+00  1.200E+01                1  1.0 0.00   243
  75  H  3  ct1  H  O 5.556E-02  0.000E+00  1.200E+01                1  1.0 0.00   254
  76  H  3  ct1  C  C 5.556E-02  0.000E+00  1.200E+01                1  1.0 0.00   265
  77  H  3  ct1  C  O 5.556E-02  0.000E+00  1.200E+01                1  1.0 0.00   276
  78  H  3  ct1  O  O 5.556E-02  0.000E+00  1.200E+01                1  1.0 0.00   287
  79  H  3  ct1  H  H 9.168E-02  8.697E+00  1.200E+01               -1  1.0 0.00   726
  80  H  3  ct1  H  C 9.168E-02  8.697E+00  1.200E+01               -1  1.0 0.00   737
  81  H  3  ct1  H  O 9.168E-02  8.697E+00  1.200E+01               -1  1.0 0.00   748
  82  H  3  ct1  C  C 9.168E-02  8.697E+00  1.200E+01               -1  1.0 0.00   759
  83  H  3  ct1  C  O 9.168E-02  8.697E+00  1.200E+01               -1  1.0 0.00   770
  84  H  3  ct1  O  O 9.168E-02  8.697E+00  1.200E+01               -1  1.0 0.00   781
  85  H  3  ct1  H  H 9.168E-02  8.697E+00  1.200E+01                1  1.0 0.00   727
  86  H  3  ct1  H  C 9.168E-02  8.697E+00  1.200E+01                1  1.0 0.00   738
  87  H  3  ct1  H  O 9.168E-02  8.697E+00  1.200E+01                1  1.0 0.00   749
  88  H  3  ct1  C  C 9.168E-02  8.697E+00  1.200E+01                1  1.0 0.00   760
  89  H  3  ct1  C  O 9.168E-02  8.697E+00  1.200E+01                1  1.0 0.00   771
  90  H  3  ct1  O  O 9.168E-02  8.697E+00  1.200E+01                1  1.0 0.00   782
  91  H  3  ct1  H  H 1.111E-01  0.000E+00  1.200E+01               -1  1.0 0.00   233
  92  H  3  ct1  H  C 1.111E-01  0.000E+00  1.200E+01               -1  1.0 0.00   244
  93  H  3  ct1  H  O 1.111E-01  0.000E+00  1.200E+01               -1  1.0 0.00   255
  94  H  3  ct1  C  C 1.111E-01  0.000E+00  1.200E+01               -1  1.0 0.00   266
  95  H  3  ct1  C  O 1.111E-01  0.000E+00  1.200E+01               -1  1.0 0.00   277
  96  H  3  ct1  O  O 1.111E-01  0.000E+00  1.200E+01               -1  1.0 0.00   288
  97  H  3  ct1  H  H 1.111E-01  0.000E+00  1.200E+01                1  1.0 0.00   234
  98  H  3  ct1  H  C 1.111E-01  0.000E+00  1.200E+01                1  1.0 0.00   245
  99  H  3  ct1  H  O 1.111E-01  0.000E+00  1.200E+01                1  1.0 0.00   256
 100  H  3  ct1  C  C 1.111E-01  0.000E+00  1.200E+01                1  1.0 0.00   267
 101  H  3  ct1  C  O 1.111E-01  0.000E+00  1.200E+01                1  1.0 0.00   278
 102  H  3  ct1  O  O 1.111E-01  0.000E+00  1.200E+01                1  1.0 0.00   289
 103  H  3  ct1  H  H 1.745E-01  6.304E+00  1.200E+01               -1  1.0 0.00   724
 104  H  3  ct1  H  C 1.745E-01  6.304E+00  1.200E+01               -1  1.0 0.00   735
 105  H  3  ct1  H  O 1.745E-01  6.304E+00  1.200E+01               -1  1.0 0.00   746
 106  H  3  ct1  C  C 1.745E-01  6.304E+00  1.200E+01               -1  1.0 0.00   757
 107  H  3  ct1  C  O 1.745E-01  6.304E+00  1.200E+01               -1  1.0 0.00   768
 108  H  3  ct1  O  O 1.745E-01  6.304E+00  1.200E+01               -1  1.0 0.00   779
 109  H  3  ct1  H  H 1.745E-01  6.304E+00  1.200E+01                1  1.0 0.00   725
 110  H  3  ct1  H  C 1.745E-01  6.304E+00  1.200E+01                1  1.0 0.00   736
 111  H  3  ct1  H  O 1.745E-01  6.304E+00  1.200E+01                1  1.0 0.00   747
 112  H  3  ct1  C  C 1.745E-01  6.304E+00  1.200E+01                1  1.0 0.00   758
 113  H  3  ct1  C  O 1.745E-01  6.304E+00  1.200E+01                1  1.0 0.00   769
 114  H  3  ct1  O  O 1.745E-01  6.304E+00  1.200E+01                1  1.0 0.00   780
 115  H  3  ct1  H  H 3.322E-01  4.569E+00  1.200E+01               -1  1.0 0.00   722
 116  H  3  ct1  H  C 3.322E-01  4.569E+00  1.200E+01               -1  1.0 0.00   733
 117  H  3  ct1  H  O 3.322E-01  4.569E+00  1.200E+01               -1  1.0 0.00   744
 118  H  3  ct1  C  C 3.322E-01  4.569E+00  1.200E+01               -1  1.0 0.00   755
 119  H  3  ct1  C  O 3.322E-01  4.569E+00  1.200E+01               -1  1.0 0.00   766
 120  H  3  ct1  O  O 3.322E-01  4.569E+00  1.200E+01               -1  1.0 0.00   777
 121  H  3  ct1  H  H 3.322E-01  4.569E+00  1.200E+01                1  1.0 0.00   723
 122  H  3  ct1  H  C 3.322E-01  4.569E+00  1.200E+01                1  1.0 0.00   734
 123  H  3  ct1  H  O 3.322E-01  4.569E+00  1.200E+01                1  1.0 0.00   745
 124  H  3  ct1  C  C 3.322E-01  4.569E+00  1.200E+01                1  1.0 0.00   756
 125  H  3  ct1  C  O 3.322E-01  4.569E+00  1.200E+01                1  1.0 0.00   767
 126  H  3  ct1  O  O 3.322E-01  4.569E+00  1.200E+01                1  1.0 0.00   778
 127  H  3  ct1  H  H 6.325E-01  3.311E+00  1.200E+01               -1  1.0 0.00   720
 128  H  3  ct1  H  C 6.325E-01  3.311E+00  1.200E+01               -1  1.0 0.00   731
 129  H  3  ct1  H  O 6.325E-01  3.311E+00  1.200E+01               -1  1.0 0.00   742
 130  H  3  ct1  C  C 6.325E-01  3.311E+00  1.200E+01               -1  1.0 0.00   753
 131  H  3  ct1  C  O 6.325E-01  3.311E+00  1.200E+01               -1  1.0 0.00   764
 132  H  3  ct1  O  O 6.325E-01  3.311E+00  1.200E+01               -1  1.0 0.00   775
 133  H  3  ct1  H  H 6.325E-01  3.311E+00  1.200E+01                1  1.0 0.00   721
 134  H  3  ct1  H  C 6.325E-01  3.311E+00  1.200E+01                1  1.0 0.00   732
 135  H  3  ct1  H  O 6.325E-01  3.311E+00  1.200E+01                1  1.0 0.00   743
 136  H  3  ct1  C  C 6.325E-01  3.311E+00  1.200E+01                1  1.0 0.00   754
 137  H  3  ct1  C  O 6.325E-01  3.311E+00  1.200E+01                1  1.0 0.00   765
 138  H  3  ct1  O  O 6.325E-01  3.311E+00  1.200E+01                1  1.0 0.00   776
 139  H  3  ct1  H  H 1.204E+00  2.400E+00  1.200E+01               -1  1.0 0.00   718
 140  H  3  ct1  H  C 1.204E+00  2.400E+00  1.200E+01               -1  1.0 0.00   729
 141  H  3  ct1  H  O 1.204E+00  2.400E+00  1.200E+01               -1  1.0 0.00   740
 142  H  3  ct1  C  C 1.204E+00  2.400E+00  1.200E+01               -1  1.0 0.00   751
 143  H  3  ct1  C  O 1.204E+00  2.400E+00  1.200E+01               -1  1.0 0.00   762
 144  H  3  ct1  O  O 1.204E+00  2.400E+00  1.200E+01               -1  1.0 0.00   773
 145  H  3  ct1  H  H 1.204E+00  2.400E+00  1.200E+01                1  1.0 0.00   719
 146  H  3  ct1  H  C 1.204E+00  2.400E+00  1.200E+01                1  1.0 0.00   730
 147  H  3  ct1  H  O 1.204E+00  2.400E+00  1.200E+01                1  1.0 0.00   741
 148  H  3  ct1  C  C 1.204E+00  2.400E+00  1.200E+01                1  1.0 0.00   752
 149  H  3  ct1  C  O 1.204E+00  2.400E+00  1.200E+01                1  1.0 0.00   763
 150  H  9  ct1  H  H 6.944E-03  0.000E+00  1.200E+01               -1  1.0 0.00   438
 151  H  9  ct1  H  C 6.944E-03  0.000E+00  1.200E+01               -1  1.0 0.00   449
 152  H  9  ct1  H  O 6.944E-03  0.000E+00  1.200E+01               -1  1.0 0.00   460
 153  H  9  ct1  C  C 6.944E-03  0.000E+00  1.200E+01               -1  1.0 0.00   471
 154  H  9  ct1  C  O 6.944E-03  0.000E+00  1.200E+01               -1  1.0 0.00   482
 155  H  9  ct1  O  O 6.944E-03  0.000E+00  1.200E+01               -1  1.0 0.00   493
 156  H  9  ct1  H  H 6.944E-03  0.000E+00  1.200E+01                1  1.0 0.00   439
 157  H  9  ct1  H  C 6.944E-03  0.000E+00  1.200E+01                1  1.0 0.00   450
 158  H  9  ct1  H  O 6.944E-03  0.000E+00  1.200E+01                1  1.0 0.00   461
 159  H  9  ct1  C  C 6.944E-03  0.000E+00  1.200E+01                1  1.0 0.00   472
 160  H  9  ct1  C  O 6.944E-03  0.000E+00  1.200E+01                1  1.0 0.00   483
 161  H  9  ct1  O  O 6.944E-03  0.000E+00  1.200E+01                1  1.0 0.00   494
 162  H  9  ct1  H  H 1.389E-02  0.000E+00  1.200E+01               -1  1.0 0.00   440
 163  H  9  ct1  H  C 1.389E-02  0.000E+00  1.200E+01               -1  1.0 0.00   451
 164  H  9  ct1  H  O 1.389E-02  0.000E+00  1.200E+01               -1  1.0 0.00   462
 165  H  9  ct1  C  C 1.389E-02  0.000E+00  1.200E+01               -1  1.0 0.00   473
 166  H  9  ct1  C  O 1.389E-02  0.000E+00  1.200E+01               -1  1.0 0.00   484
 167  H  9  ct1  O  O 1.389E-02  0.000E+00  1.200E+01               -1  1.0 0.00   495
 168  H  9  ct1  H  H 1.389E-02  0.000E+00  1.200E+01                1  1.0 0.00   441
 169  H  9  ct1  H  C 1.389E-02  0.000E+00  1.200E+01                1  1.0 0.00   452
 170  H  9  ct1  H  O 1.389E-02  0.000E+00  1.200E+01                1  1.0 0.00   463
 171  H  9  ct1  C  C 1.389E-02  0.000E+00  1.200E+01                1  1.0 0.00   474
 172  H  9  ct1  C  O 1.389E-02  0.000E+00  1.200E+01                1  1.0 0.00   485
 173  H  9  ct1  O  O 1.389E-02  0.000E+00  1.200E+01                1  1.0 0.00   496
 174  H  9  ct1  H  H 2.778E-02  0.000E+00  1.200E+01               -1  1.0 0.00   442
 175  H  9  ct1  H  C 2.778E-02  0.000E+00  1.200E+01               -1  1.0 0.00   453
 176  H  9  ct1  H  O 2.778E-02  0.000E+00  1.200E+01               -1  1.0 0.00   464
 177  H  9  ct1  C  C 2.778E-02  0.000E+00  1.200E+01               -1  1.0 0.00   475
 178  H  9  ct1  C  O 2.778E-02  0.000E+00  1.200E+01               -1  1.0 0.00   486
 179  H  9  ct1  O  O 2.778E-02  0.000E+00  1.200E+01               -1  1.0 0.00   497
 180  H  9  ct1  H  H 2.778E-02  0.000E+00  1.200E+01                1  1.0 0.00   443
 181  H  9  ct1  H  C 2.778E-02  0.000E+00  1.200E+01                1  1.0 0.00   454
 182  H  9  ct1  H  O 2.778E-02  0.000E+00  1.200E+01                1  1.0 0.00   465
 183  H  9  ct1  C  C 2.778E-02  0.000E+00  1.200E+01                1  1.0 0.00   476
 184  H  9  ct1  C  O 2.778E-02  0.000E+00  1.200E+01                1  1.0 0.00   487
 185  H  9  ct1  O  O 2.778E-02  0.000E+00  1.200E+01                1  1.0 0.00   498
 186  H  9  ct1  H  H 5.556E-02  0.000E+00  1.200E+01               -1  1.0 0.00   444
 187  H  9  ct1  H  C 5.556E-02  0.000E+00  1.200E+01               -1  1.0 0.00   455
 188  H  9  ct1  H  O 5.556E-02  0.000E+00  1.200E+01               -1  1.0 0.00   466
 189  H  9  ct1  C  C 5.556E-02  0.000E+00  1.200E+01               -1  1.0 0.00   477
 190  H  9  ct1  C  O 5.556E-02  0.000E+00  1.200E+01               -1  1.0 0.00   488
 191  H  9  ct1  O  O 5.556E-02  0.000E+00  1.200E+01               -1  1.0 0.00   499
 192  H  9  ct1  H  H 5.556E-02  0.000E+00  1.200E+01                1  1.0 0.00   445
 193  H  9  ct1  H  C 5.556E-02  0.000E+00  1.200E+01                1  1.0 0.00   456
 194  H  9  ct1  H  O 5.556E-02  0.000E+00  1.200E+01                1  1.0 0.00   467
 195  H  9  ct1  C  C 5.556E-02  0.000E+00  1.200E+01                1  1.0 0.00   478
 196  H  9  ct1  C  O 5.556E-02  0.000E+00  1.200E+01                1  1.0 0.00   489
 197  H  9  ct1  O  O 5.556E-02  0.000E+00  1.200E+01                1  1.0 0.00   500
 198  H  9  ct1  H  H 9.168E-02  8.697E+00  1.200E+01               -1  1.0 0.00   939
 199  H  9  ct1  H  C 9.168E-02  8.697E+00  1.200E+01               -1  1.0 0.00   950
 200  H  9  ct1  H  O 9.168E-02  8.697E+00  1.200E+01               -1  1.0 0.00   961
 201  H  9  ct1  C  C 9.168E-02  8.697E+00  1.200E+01               -1  1.0 0.00   972
 202  H  9  ct1  C  O 9.168E-02  8.697E+00  1.200E+01               -1  1.0 0.00   983
 203  H  9  ct1  O  O 9.168E-02  8.697E+00  1.200E+01               -1  1.0 0.00   994
 204  H  9  ct1  H  H 9.168E-02  8.697E+00  1.200E+01                1  1.0 0.00   940
 205  H  9  ct1  H  C 9.168E-02  8.697E+00  1.200E+01                1  1.0 0.00   951
 206  H  9  ct1  H  O 9.168E-02  8.697E+00  1.200E+01                1  1.0 0.00   962
 207  H  9  ct1  C  C 9.168E-02  8.697E+00  1.200E+01                1  1.0 0.00   973
 208  H  9  ct1  C  O 9.168E-02  8.697E+00  1.200E+01                1  1.0 0.00   984
 209  H  9  ct1  O  O 9.168E-02  8.697E+00  1.200E+01                1  1.0 0.00   995
 210  H  9  ct1  H  H 1.111E-01  0.000E+00  1.200E+01               -1  1.0 0.00   446
 211  H  9  ct1  H  C 1.111E-01  0.000E+00  1.200E+01               -1  1.0 0.00   457
 212  H  9  ct1  H  O 1.111E-01  0.000E+00  1.200E+01               -1  1.0 0.00   468
 213  H  9  ct1  C  C 1.111E-01  0.000E+00  1.200E+01               -1  1.0 0.00   479
 214  H  9  ct1  C  O 1.111E-01  0.000E+00  1.200E+01               -1  1.0 0.00   490
 215  H  9  ct1  O  O 1.111E-01  0.000E+00  1.200E+01               -1  1.0 0.00   501
 216  H  9  ct1  H  H 1.111E-01  0.000E+00  1.200E+01                1  1.0 0.00   447
 217  H  9  ct1  H  C 1.111E-01  0.000E+00  1.200E+01                1  1.0 0.00   458
 218  H  9  ct1  H  O 1.111E-01  0.000E+00  1.200E+01                1  1.0 0.00   469
 219  H  9  ct1  C  C 1.111E-01  0.000E+00  1.200E+01                1  1.0 0.00   480
 220  H  9  ct1  C  O 1.111E-01  0.000E+00  1.200E+01                1  1.0 0.00   491
 221  H  9  ct1  O  O 1.111E-01  0.000E+00  1.200E+01                1  1.0 0.00   502
 222  H  9  ct1  H  H 1.745E-01  6.304E+00  1.200E+01               -1  1.0 0.00   937
 223  H  9  ct1  H  C 1.745E-01  6.304E+00  1.200E+01               -1  1.0 0.00   948
 224  H  9  ct1  H  O 1.745E-01  6.304E+00  1.200E+01               -1  1.0 0.00   959
 225  H  9  ct1  C  C 1.745E-01  6.304E+00  1.200E+01               -1  1.0 0.00   970
 226  H  9  ct1  C  O 1.745E-01  6.304E+00  1.200E+01               -1  1.0 0.00   981
 227  H  9  ct1  O  O 1.745E-01  6.304E+00  1.200E+01               -1  1.0 0.00   992
 228  H  9  ct1  H  H 1.745E-01  6.304E+00  1.200E+01                1  1.0 0.00   938
 229  H  9  ct1  H  C 1.745E-01  6.304E+00  1.200E+01                1  1.0 0.00   949
 230  H  9  ct1  H  O 1.745E-01  6.304E+00  1.200E+01                1  1.0 0.00   960
 231  H  9  ct1  C  C 1.745E-01  6.304E+00  1.200E+01                1  1.0 0.00   971
 232  H  9  ct1  C  O 1.745E-01  6.304E+00  1.200E+01                1  1.0 0.00   982
 233  H  9  ct1  O  O 1.745E-01  6.304E+00  1.200E+01                1  1.0 0.00   993
 234  H  9  ct1  H  H 3.322E-01  4.569E+00  1.200E+01               -1  1.0 0.00   935
 235  H  9  ct1  H  C 3.322E-01  4.569E+00  1.200E+01               -1  1.0 0.00   946
 236  H  9  ct1  H  O 3.322E-01  4.569E+00  1.200E+01               -1  1.0 0.00   957
 237  H  9  ct1  C  C 3.322E-01  4.569E+00  1.200E+01               -1  1.0 0.00   968
 238  H  9  ct1  C  O 3.322E-01  4.569E+00  1.200E+01               -1  1.0 0.00   979
 239  H  9  ct1  O  O 3.322E-01  4.569E+00  1.200E+01               -1  1.0 0.00   990
 240  H  9  ct1  H  H 3.322E-01  4.569E+00  1.200E+01                1  1.0 0.00   936
 241  H  9  ct1  H  C 3.322E-01  4.569E+00  1.200E+01                1  1.0 0.00   947
 242  H  9  ct1  H  O 3.322E-01  4.569E+00  1.200E+01                1  1.0 0.00   958
 243  H  9  ct1  C  C 3.322E-01  4.569E+00  1.200E+01                1  1.0 0.00   969
 244  H  9  ct1  C  O 3.322E-01  4.569E+00  1.200E+01                1  1.0 0.00   980
 245  H  9  ct1  O  O 3.322E-01  4.569E+00  1.200E+01                1  1.0 0.00   991
 246  H  9  ct1  H  H 6.325E-01  3.311E+00  1.200E+01               -1  1.0 0.00   933
 247  H  9  ct1  H  C 6.325E-01  3.311E+00  1.200E+01               -1  1.0 0.00   944
 248  H  9  ct1  H  O 6.325E-01  3.311E+00  1.200E+01               -1  1.0 0.00   955
 249  H  9  ct1  C  C 6.325E-01  3.311E+00  1.200E+01               -1  1.0 0.00   966
 250  H  9  ct1  C  O 6.325E-01  3.311E+00  1.200E+01               -1  1.0 0.00   977
 251  H  9  ct1  O  O 6.325E-01  3.311E+00  1.200E+01               -1  1.0 0.00   988
 252  H  9  ct1  H  H 6.325E-01  3.311E+00  1.200E+01                1  1.0 0.00   934
 253  H  9  ct1  H  C 6.325E-01  3.311E+00  1.200E+01                1  1.0 0.00   945
 254  H  9  ct1  H  O 6.325E-01  3.311E+00  1.200E+01                1  1.0 0.00   956
 255  H  9  ct1  C  C 6.325E-01  3.311E+00  1.200E+01                1  1.0 0.00   967
 256  H  9  ct1  C  O 6.325E-01  3.311E+00  1.200E+01                1  1.0 0.00   978
 257  H  9  ct1  O  O 6.325E-01  3.311E+00  1.200E+01                1  1.0 0.00   989
 258  H  9  ct1  H  H 1.204E+00  2.400E+00  1.200E+01               -1  1.0 0.00   931
 259  H  9  ct1  H  C 1.204E+00  2.400E+00  1.200E+01               -1  1.0 0.00   942
 260  H  9  ct1  H  O 1.204E+00  2.400E+00  1.200E+01               -1  1.0 0.00   953
 261  H  9  ct1  C  C 1.204E+00  2.400E+00  1.200E+01               -1  1.0 0.00   964
 262  H  9  ct1  C  O 1.204E+00  2.400E+00  1.200E+01               -1  1.0 0.00   975
 263  H  9  ct1  O  O 1.204E+00  2.400E+00  1.200E+01               -1  1.0 0.00   986
 264  H  9  ct1  H  H 1.204E+00  2.400E+00  1.200E+01                1  1.0 0.00   932
 265  H  9  ct1  H  C 1.204E+00  2.400E+00  1.200E+01                1  1.0 0.00   943
 266  H  9  ct1  H  O 1.204E+00  2.400E+00  1.200E+01                1  1.0 0.00   954
 267  H  9  ct1  C  C 1.204E+00  2.400E+00  1.200E+01                1  1.0 0.00   965
 268  H  9  ct1  C  O 1.204E+00  2.400E+00  1.200E+01                1  1.0 0.00   976
 269  H  9  ct1  O  O 1.204E+00  2.400E+00  1.200E+01                1  1.0 0.00   987
-------------------------------------------------------------------------------------------------
Short range atomic symmetry functions element  C :
-------------------------------------------------------------------------------------------------
 ind ec tp sbtp e1 e2       eta      rs/rl         rc   angl   angr la zeta    a    ln
-------------------------------------------------------------------------------------------------
   1  C  2  ct1  H    6.944E-03  0.000E+00  1.200E+01                       0.00   174
   2  C  2  ct1  C    6.944E-03  0.000E+00  1.200E+01                       0.00   180
   3  C  2  ct1  O    6.944E-03  0.000E+00  1.200E+01                       0.00   186
   4  C  2  ct1  H    1.389E-02  0.000E+00  1.200E+01                       0.00   175
   5  C  2  ct1  C    1.389E-02  0.000E+00  1.200E+01                       0.00   181
   6  C  2  ct1  O    1.389E-02  0.000E+00  1.200E+01                       0.00   187
   7  C  2  ct1  H    2.778E-02  0.000E+00  1.200E+01                       0.00   176
   8  C  2  ct1  C    2.778E-02  0.000E+00  1.200E+01                       0.00   182
   9  C  2  ct1  O    2.778E-02  0.000E+00  1.200E+01                       0.00   188
  10  C  2  ct1  H    5.556E-02  0.000E+00  1.200E+01                       0.00   177
  11  C  2  ct1  C    5.556E-02  0.000E+00  1.200E+01                       0.00   183
  12  C  2  ct1  O    5.556E-02  0.000E+00  1.200E+01                       0.00   189
  13  C  2  ct1  H    9.168E-02  8.697E+00  1.200E+01                       0.00   671
  14  C  2  ct1  C    9.168E-02  8.697E+00  1.200E+01                       0.00   677
  15  C  2  ct1  O    9.168E-02  8.697E+00  1.200E+01                       0.00   683
  16  C  2  ct1  H    1.111E-01  0.000E+00  1.200E+01                       0.00   178
  17  C  2  ct1  C    1.111E-01  0.000E+00  1.200E+01                       0.00   184
  18  C  2  ct1  O    1.111E-01  0.000E+00  1.200E+01                       0.00   190
  19  C  2  ct1  H    1.745E-01  6.304E+00  1.200E+01                       0.00   670
  20  C  2  ct1  C    1.745E-01  6.304E+00  1.200E+01                       0.00   676
  21  C  2  ct1  O    1.745E-01  6.304E+00  1.200E+01                       0.00   682
  22  C  2  ct1  H    3.322E-01  4.569E+00  1.200E+01                       0.00   669
  23  C  2  ct1  C    3.322E-01  4.569E+00  1.200E+01                       0.00   675
  24  C  2  ct1  O    3.322E-01  4.569E+00  1.200E+01                       0.00   681
  25  C  2  ct1  H    6.325E-01  3.311E+00  1.200E+01                       0.00   668
  26  C  2  ct1  C    6.325E-01  3.311E+00  1.200E+01                       0.00   674
  27  C  2  ct1  O    6.325E-01  3.311E+00  1.200E+01                       0.00   680
  28  C  2  ct1  H    1.204E+00  2.400E+00  1.200E+01                       0.00   667
  29  C  2  ct1  C    1.204E+00  2.400E+00  1.200E+01                       0.00   673
  30  C  2  ct1  O    1.204E+00  2.400E+00  1.200E+01                       0.00   679
  31  C  3  ct1  H  H 6.944E-03  0.000E+00  1.200E+01               -1  1.0 0.00   291
  32  C  3  ct1  H  C 6.944E-03  0.000E+00  1.200E+01               -1  1.0 0.00   302
  33  C  3  ct1  H  O 6.944E-03  0.000E+00  1.200E+01               -1  1.0 0.00   313
  34  C  3  ct1  C  C 6.944E-03  0.000E+00  1.200E+01               -1  1.0 0.00   324
  35  C  3  ct1  C  O 6.944E-03  0.000E+00  1.200E+01               -1  1.0 0.00   335
  36  C  3  ct1  O  O 6.944E-03  0.000E+00  1.200E+01               -1  1.0 0.00   346
  37  C  3  ct1  H  H 6.944E-03  0.000E+00  1.200E+01                1  1.0 0.00   292
  38  C  3  ct1  H  C 6.944E-03  0.000E+00  1.200E+01                1  1.0 0.00   303
  39  C  3  ct1  H  O 6.944E-03  0.000E+00  1.200E+01                1  1.0 0.00   314
  40  C  3  ct1  C  C 6.944E-03  0.000E+00  1.200E+01                1  1.0 0.00   325
  41  C  3  ct1  C  O 6.944E-03  0.000E+00  1.200E+01                1  1.0 0.00   336
  42  C  3  ct1  O  O 6.944E-03  0.000E+00  1.200E+01                1  1.0 0.00   347
  43  C  3  ct1  H  H 1.389E-02  0.000E+00  1.200E+01               -1  1.0 0.00   293
  44  C  3  ct1  H  C 1.389E-02  0.000E+00  1.200E+01               -1  1.0 0.00   304
  45  C  3  ct1  H  O 1.389E-02  0.000E+00  1.200E+01               -1  1.0 0.00   315
  46  C  3  ct1  C  C 1.389E-02  0.000E+00  1.200E+01               -1  1.0 0.00   326
  47  C  3  ct1  C  O 1.389E-02  0.000E+00  1.200E+01               -1  1.0 0.00   337
  48  C  3  ct1  O  O 1.389E-02  0.000E+00  1.200E+01               -1  1.0 0.00   348
  49  C  3  ct1  H  H 1.389E-02  0.000E+00  1.200E+01                1  1.0 0.00   294
  50  C  3  ct1  H  C 1.389E-02  0.000E+00  1.200E+01                1  1.0 0.00   305
  51  C  3  ct1  H  O 1.389E-02  0.000E+00  1.200E+01                1  1.0 0.00   316
  52  C  3  ct1  C  C 1.389E-02  0.000E+00  1.200E+01                1  1.0 0.00   327
  53  C  3  ct1  C  O 1.389E-02  0.000E+00  1.200E+01                1  1.0 0.00   338
  54  C  3  ct1  O  O 1.389E-02  0.000E+00  1.200E+01                1  1.0 0.00   349
  55  C  3  ct1  H  H 2.778E-02  0.000E+00  1.200E+01               -1  1.0 0.00   295
  56  C  3  ct1  H  C 2.778E-02  0.000E+00  1.200E+01               -1  1.0 0.00   306
  57  C  3  ct1  H  O 2.778E-02  0.000E+00  1.200E+01               -1  1.0 0.00   317
  58  C  3  ct1  C  C 2.778E-02  0.000E+00  1.200E+01               -1  1.0 0.00   328
  59  C  3  ct1  C  O 2.778E-02  0.000E+00  1.200E+01               -1  1.0 0.00   339
  60  C  3  ct1  O  O 2.778E-02  0.000E+00  1.200E+01               -1  1.0 0.00   350
  61  C  3  ct1  H  H 2.778E-02  0.000E+00  1.200E+01                1  1.0 0.00   296
  62  C  3  ct1  H  C 2.778E-02  0.000E+00  1.200E+01                1  1.0 0.00   307
  63  C  3  ct1  H  O 2.778E-02  0.000E+00  1.200E+01                1  1.0 0.00   318
  64  C  3  ct1  C  C 2.778E-02  0.000E+00  1.200E+01                1  1.0 0.00   329
  65  C  3  ct1  C  O 2.778E-02  0.000E+00  1.200E+01                1  1.0 0.00   340
  66  C  3  ct1  O  O 2.778E-02  0.000E+00  1.200E+01                1  1.0 0.00   351
  67  C  3  ct1  H  H 5.556E-02  0.000E+00  1.200E+01               -1  1.0 0.00   297
  68  C  3  ct1  H  C 5.556E-02  0.000E+00  1.200E+01               -1  1.0 0.00   308
  69  C  3  ct1  H  O 5.556E-02  0.000E+00  1.200E+01               -1  1.0 0.00   319
  70  C  3  ct1  C  C 5.556E-02  0.000E+00  1.200E+01               -1  1.0 0.00   330
  71  C  3  ct1  C  O 5.556E-02  0.000E+00  1.200E+01               -1  1.0 0.00   341
  72  C  3  ct1  O  O 5.556E-02  0.000E+00  1.200E+01               -1  1.0 0.00   352
  73  C  3  ct1  H  H 5.556E-02  0.000E+00  1.200E+01                1  1.0 0.00   298
  74  C  3  ct1  H  C 5.556E-02  0.000E+00  1.200E+01                1  1.0 0.00   309
  75  C  3  ct1  H  O 5.556E-02  0.000E+00  1.200E+01                1  1.0 0.00   320
  76  C  3  ct1  C  C 5.556E-02  0.000E+00  1.200E+01                1  1.0 0.00   331
  77  C  3  ct1  C  O 5.556E-02  0.000E+00  1.200E+01                1  1.0 0.00   342
  78  C  3  ct1  O  O 5.556E-02  0.000E+00  1.200E+01                1  1.0 0.00   353
  79  C  3  ct1  H  H 9.168E-02  8.697E+00  1.200E+01               -1  1.0 0.00   792
  80  C  3  ct1  H  C 9.168E-02  8.697E+00  1.200E+01               -1  1.0 0.00   803
  81  C  3  ct1  H  O 9.168E-02  8.697E+00  1.200E+01               -1  1.0 0.00   814
  82  C  3  ct1  C  C 9.168E-02  8.697E+00  1.200E+01               -1  1.0 0.00   825
  83  C  3  ct1  C  O 9.168E-02  8.697E+00  1.200E+01               -1  1.0 0.00   836
  84  C  3  ct1  O  O 9.168E-02  8.697E+00  1.200E+01               -1  1.0 0.00   847
  85  C  3  ct1  H  H 9.168E-02  8.697E+00  1.200E+01                1  1.0 0.00   793
  86  C  3  ct1  H  C 9.168E-02  8.697E+00  1.200E+01                1  1.0 0.00   804
  87  C  3  ct1  H  O 9.168E-02  8.697E+00  1.200E+01                1  1.0 0.00   815
  88  C  3  ct1  C  C 9.168E-02  8.697E+00  1.200E+01                1  1.0 0.00   826
  89  C  3  ct1  C  O 9.168E-02  8.697E+00  1.200E+01                1  1.0 0.00   837
  90  C  3  ct1  O  O 9.168E-02  8.697E+00  1.200E+01                1  1.0 0.00   848
  91  C  3  ct1  H  H 1.111E-01  0.000E+00  1.200E+01               -1  1.0 0.00   299
  92  C  3  ct1  H  C 1.111E-01  0.000E+00  1.200E+01               -1  1.0 0.00   310
  93  C  3  ct1  H  O 1.111E-01  0.000E+00  1.200E+01               -1  1.0 0.00   321
  94  C  3  ct1  C  C 1.111E-01  0.000E+00  1.200E+01               -1  1.0 0.00   332
  95  C  3  ct1  C  O 1.111E-01  0.000E+00  1.200E+01               -1  1.0 0.00   343
  96  C  3  ct1  O  O 1.111E-01  0.000E+00  1.200E+01               -1  1.0 0.00   354
  97  C  3  ct1  H  H 1.111E-01  0.000E+00  1.200E+01                1  1.0 0.00   300
  98  C  3  ct1  H  C 1.111E-01  0.000E+00  1.200E+01                1  1.0 0.00   311
  99  C  3  ct1  H  O 1.111E-01  0.000E+00  1.200E+01                1  1.0 0.00   322
 100  C  3  ct1  C  C 1.111E-01  0.000E+00  1.200E+01                1  1.0 0.00   333
 101  C  3  ct1  C  O 1.111E-01  0.000E+00  1.200E+01                1  1.0 0.00   344
 102  C  3  ct1  O  O 1.111E-01  0.000E+00  1.200E+01                1  1.0 0.00   355
 103  C  3  ct1  H  H 1.745E-01  6.304E+00  1.200E+01               -1  1.0 0.00   790
 104  C  3  ct1  H  C 1.745E-01  6.304E+00  1.200E+01               -1  1.0 0.00   801
 105  C  3  ct1  H  O 1.745E-01  6.304E+00  1.200E+01               -1  1.0 0.00   812
 106  C  3  ct1  C  C 1.745E-01  6.304E+00  1.200E+01               -1  1.0 0.00   823
 107  C  3  ct1  C  O 1.745E-01  6.304E+00  1.200E+01               -1  1.0 0.00   834
 108  C  3  ct1  O  O 1.745E-01  6.304E+00  1.200E+01               -1  1.0 0.00   845
 109  C  3  ct1  H  H 1.745E-01  6.304E+00  1.200E+01                1  1.0 0.00   791
 110  C  3  ct1  H  C 1.745E-01  6.304E+00  1.200E+01                1  1.0 0.00   802
 111  C  3  ct1  H  O 1.745E-01  6.304E+00  1.200E+01                1  1.0 0.00   813
 112  C  3  ct1  C  C 1.745E-01  6.304E+00  1.200E+01                1  1.0 0.00   824
 113  C  3  ct1  C  O 1.745E-01  6.304E+00  1.200E+01                1  1.0 0.00   835
 114  C  3  ct1  O  O 1.745E-01  6.304E+00  1.200E+01                1  1.0 0.00   846
 115  C  3  ct1  H  H 3.322E-01  4.569E+00  1.200E+01               -1  1.0 0.00   788
 116  C  3  ct1  H  C 3.322E-01  4.569E+00  1.200E+01               -1  1.0 0.00   799
 117  C  3  ct1  H  O 3.322E-01  4.569E+00  1.200E+01               -1  1.0 0.00   810
 118  C  3  ct1  C  C 3.322E-01  4.569E+00  1.200E+01               -1  1.0 0.00   821
 119  C  3  ct1  C  O 3.322E-01  4.569E+00  1.200E+01               -1  1.0 0.00   832
 120  C  3  ct1  O  O 3.322E-01  4.569E+00  1.200E+01               -1  1.0 0.00   843
 121  C  3  ct1  H  H 3.322E-01  4.569E+00  1.200E+01                1  1.0 0.00   789
 122  C  3  ct1  H  C 3.322E-01  4.569E+00  1.200E+01                1  1.0 0.00   800
 123  C  3  ct1  H  O 3.322E-01  4.569E+00  1.200E+01                1  1.0 0.00   811
 124  C  3  ct1  C  C 3.322E-01  4.569E+00  1.200E+01                1  1.0 0.00   822
 125  C  3  ct1  C  O 3.322E-01  4.569E+00  1.200E+01                1  1.0 0.00   833
 126  C  3  ct1  O  O 3.322E-01  4.569E+00  1.200E+01                1  1.0 0.00   844
 127  C  3  ct1  H  H 6.325E-01  3.311E+00  1.200E+01               -1  1.0 0.00   786
 128  C  3  ct1  H  C 6.325E-01  3.311E+00  1.200E+01               -1  1.0 0.00   797
 129  C  3  ct1  H  O 6.325E-01  3.311E+00  1.200E+01               -1  1.0 0.00   808
 130  C  3  ct1  C  C 6.325E-01  3.311E+00  1.200E+01               -1  1.0 0.00   819
 131  C  3  ct1  C  O 6.325E-01  3.311E+00  1.200E+01               -1  1.0 0.00   830
 132  C  3  ct1  O  O 6.325E-01  3.311E+00  1.200E+01               -1  1.0 0.00   841
 133  C  3  ct1  H  H 6.325E-01  3.311E+00  1.200E+01                1  1.0 0.00   787
 134  C  3  ct1  H  C 6.325E-01  3.311E+00  1.200E+01                1  1.0 0.00   798
 135  C  3  ct1  H  O 6.325E-01  3.311E+00  1.200E+01                1  1.0 0.00   809
 136  C  3  ct1  C  C 6.325E-01  3.311E+00  1.200E+01                1  1.0 0.00   820
 137  C  3  ct1  C  O 6.325E-01  3.311E+00  1.200E+01                1  1.0 0.00   831
 138  C  3  ct1  O  O 6.325E-01  3.311E+00  1.200E+01                1  1.0 0.00   842
 139  C  3  ct1  H  H 1.204E+00  2.400E+00  1.200E+01               -1  1.0 0.00   784
 140  C  3  ct1  H  C 1.204E+00  2.400E+00  1.200E+01               -1  1.0 0.00   795
 141  C  3  ct1  H  O 1.204E+00  2.400E+00  1.200E+01               -1  1.0 0.00   806
 142  C  3  ct1  C  C 1.204E+00  2.400E+00  1.200E+01               -1  1.0 0.00   817
 143  C  3  ct1  C  O 1.204E+00  2.400E+00  1.200E+01               -1  1.0 0.00   828
 144  C  3  ct1  H  H 1.204E+00  2.400E+00  1.200E+01                1  1.0 0.00   785
 145  C  3  ct1  H  C 1.204E+00  2.400E+00  1.200E+01                1  1.0 0.00   796
 146  C  3  ct1  H  O 1.204E+00  2.400E+00  1.200E+01                1  1.0 0.00   807
 147  C  3  ct1  C  C 1.204E+00  2.400E+00  1.200E+01                1  1.0 0.00   818
 148  C  3  ct1  C  O 1.204E+00  2.400E+00  1.200E+01                1  1.0 0.00   829
 149  C  9  ct1  H  H 6.944E-03  0.000E+00  1.200E+01               -1  1.0 0.00   504
 150  C  9  ct1  H  C 6.944E-03  0.000E+00  1.200E+01               -1  1.0 0.00   515
 151  C  9  ct1  H  O 6.944E-03  0.000E+00  1.200E+01               -1  1.0 0.00   526
 152  C  9  ct1  C  C 6.944E-03  0.000E+00  1.200E+01               -1  1.0 0.00   537
 153  C  9  ct1  C  O 6.944E-03  0.000E+00  1.200E+01               -1  1.0 0.00   548
 154  C  9  ct1  O  O 6.944E-03  0.000E+00  1.200E+01               -1  1.0 0.00   559
 155  C  9  ct1  H  H 6.944E-03  0.000E+00  1.200E+01                1  1.0 0.00   505
 156  C  9  ct1  H  C 6.944E-03  0.000E+00  1.200E+01                1  1.0 0.00   516
 157  C  9  ct1  H  O 6.944E-03  0.000E+00  1.200E+01                1  1.0 0.00   527
 158  C  9  ct1  C  C 6.944E-03  0.000E+00  1.200E+01                1  1.0 0.00   538
 159  C  9  ct1  C  O 6.944E-03  0.000E+00  1.200E+01                1  1.0 0.00   549
 160  C  9  ct1  O  O 6.944E-03  0.000E+00  1.200E+01                1  1.0 0.00   560
 161  C  9  ct1  H  H 1.389E-02  0.000E+00  1.200E+01               -1  1.0 0.00   506
 162  C  9  ct1  H  C 1.389E-02  0.000E+00  1.200E+01               -1  1.0 0.00   517
 163  C  9  ct1  H  O 1.389E-02  0.000E+00  1.200E+01               -1  1.0 0.00   528
 164  C  9  ct1  C  C 1.389E-02  0.000E+00  1.200E+01               -1  1.0 0.00   539
 165  C  9  ct1  C  O 1.389E-02  0.000E+00  1.200E+01               -1  1.0 0.00   550
 166  C  9  ct1  O  O 1.389E-02  0.000E+00  1.200E+01               -1  1.0 0.00   561
 167  C  9  ct1  H  H 1.389E-02  0.000E+00  1.200E+01                1  1.0 0.00   507
 168  C  9  ct1  H  C 1.389E-02  0.000E+00  1.200E+01                1  1.0 0.00   518
 169  C  9  ct1  H  O 1.389E-02  0.000E+00  1.200E+01                1  1.0 0.00   529
 170  C  9  ct1  C  C 1.389E-02  0.000E+00  1.200E+01                1  1.0 0.00   540
 171  C  9  ct1  C  O 1.389E-02  0.000E+00  1.200E+01                1  1.0 0.00   551
 172  C  9  ct1  O  O 1.389E-02  0.000E+00  1.200E+01                1  1.0 0.00   562
 173  C  9  ct1  H  H 2.778E-02  0.000E+00  1.200E+01               -1  1.0 0.00   508
 174  C  9  ct1  H  C 2.778E-02  0.000E+00  1.200E+01               -1  1.0 0.00   519
 175  C  9  ct1  H  O 2.778E-02  0.000E+00  1.200E+01               -1  1.0 0.00   530
 176  C  9  ct1  C  C 2.778E-02  0.000E+00  1.200E+01               -1  1.0 0.00   541
 177  C  9  ct1  C  O 2.778E-02  0.000E+00  1.200E+01               -1  1.0 0.00   552
 178  C  9  ct1  O  O 2.778E-02  0.000E+00  1.200E+01               -1  1.0 0.00   563
 179  C  9  ct1  H  H 2.778E-02  0.000E+00  1.200E+01                1  1.0 0.00   509
 180  C  9  ct1  H  C 2.778E-02  0.000E+00  1.200E+01                1  1.0 0.00   520
 181  C  9  ct1  H  O 2.778E-02  0.000E+00  1.200E+01                1  1.0 0.00   531
 182  C  9  ct1  C  C 2.778E-02  0.000E+00  1.200E+01                1  1.0 0.00   542
 183  C  9  ct1  C  O 2.778E-02  0.000E+00  1.200E+01                1  1.0 0.00   553
 184  C  9  ct1  O  O 2.778E-02  0.000E+00  1.200E+01                1  1.0 0.00   564
 185  C  9  ct1  H  H 5.556E-02  0.000E+00  1.200E+01               -1  1.0 0.00   510
 186  C  9  ct1  H  C 5.556E-02  0.000E+00  1.200E+01               -1  1.0 0.00   521
 187  C  9  ct1  H  O 5.556E-02  0.000E+00  1.200E+01               -1  1.0 0.00   532
 188  C  9  ct1  C  C 5.556E-02  0.000E+00  1.200E+01               -1  1.0 0.00   543
 189  C  9  ct1  C  O 5.556E-02  0.000E+00  1.200E+01               -1  1.0 0.00   554
 190  C  9  ct1  O  O 5.556E-02  0.000E+00  1.200E+01               -1  1.0 0.00   565
 191  C  9  ct1  H  H 5.556E-02  0.000E+00  1.200E+01                1  1.0 0.00   511
 192  C  9  ct1  H  C 5.556E-02  0.000E+00  1.200E+01                1  1.0 0.00   522
 193  C  9  ct1  H  O 5.556E-02  0.000E+00  1.200E+01                1  1.0 0.00   533
 194  C  9  ct1  C  C 5.556E-02  0.000E+00  1.200E+01                1  1.0 0.00   544
 195  C  9  ct1  C  O 5.556E-02  0.000E+00  1.200E+01                1  1.0 0.00   555
 196  C  9  ct1  O  O 5.556E-02  0.000E+00  1.200E+01                1  1.0 0.00   566
 197  C  9  ct1  H  H 9.168E-02  8.697E+00  1.200E+01               -1  1.0 0.00  1005
 198  C  9  ct1  H  C 9.168E-02  8.697E+00  1.200E+01               -1  1.0 0.00  1016
 199  C  9  ct1  H  O 9.168E-02  8.697E+00  1.200E+01               -1  1.0 0.00  1027
 200  C  9  ct1  C  C 9.168E-02  8.697E+00  1.200E+01               -1  1.0 0.00  1038
 201  C  9  ct1  C  O 9.168E-02  8.697E+00  1.200E+01               -1  1.0 0.00  1049
 202  C  9  ct1  O  O 9.168E-02  8.697E+00  1.200E+01               -1  1.0 0.00  1060
 203  C  9  ct1  H  H 9.168E-02  8.697E+00  1.200E+01                1  1.0 0.00  1006
 204  C  9  ct1  H  C 9.168E-02  8.697E+00  1.200E+01                1  1.0 0.00  1017
 205  C  9  ct1  H  O 9.168E-02  8.697E+00  1.200E+01                1  1.0 0.00  1028
 206  C  9  ct1  C  C 9.168E-02  8.697E+00  1.200E+01                1  1.0 0.00  1039
 207  C  9  ct1  C  O 9.168E-02  8.697E+00  1.200E+01                1  1.0 0.00  1050
 208  C  9  ct1  O  O 9.168E-02  8.697E+00  1.200E+01                1  1.0 0.00  1061
 209  C  9  ct1  H  H 1.111E-01  0.000E+00  1.200E+01               -1  1.0 0.00   512
 210  C  9  ct1  H  C 1.111E-01  0.000E+00  1.200E+01               -1  1.0 0.00   523
 211  C  9  ct1  H  O 1.111E-01  0.000E+00  1.200E+01               -1  1.0 0.00   534
 212  C  9  ct1  C  C 1.111E-01  0.000E+00  1.200E+01               -1  1.0 0.00   545
 213  C  9  ct1  C  O 1.111E-01  0.000E+00  1.200E+01               -1  1.0 0.00   556
 214  C  9  ct1  O  O 1.111E-01  0.000E+00  1.200E+01               -1  1.0 0.00   567
 215  C  9  ct1  H  H 1.111E-01  0.000E+00  1.200E+01                1  1.0 0.00   513
 216  C  9  ct1  H  C 1.111E-01  0.000E+00  1.200E+01                1  1.0 0.00   524
 217  C  9  ct1  H  O 1.111E-01  0.000E+00  1.200E+01                1  1.0 0.00   535
 218  C  9  ct1  C  C 1.111E-01  0.000E+00  1.200E+01                1  1.0 0.00   546
 219  C  9  ct1  C  O 1.111E-01  0.000E+00  1.200E+01                1  1.0 0.00   557
 220  C  9  ct1  O  O 1.111E-01  0.000E+00  1.200E+01                1  1.0 0.00   568
 221  C  9  ct1  H  H 1.745E-01  6.304E+00  1.200E+01               -1  1.0 0.00  1003
 222  C  9  ct1  H  C 1.745E-01  6.304E+00  1.200E+01               -1  1.0 0.00  1014
 223  C  9  ct1  H  O 1.745E-01  6.304E+00  1.200E+01               -1  1.0 0.00  1025
 224  C  9  ct1  C  C 1.745E-01  6.304E+00  1.200E+01               -1  1.0 0.00  1036
 225  C  9  ct1  C  O 1.745E-01  6.304E+00  1.200E+01               -1  1.0 0.00  1047
 226  C  9  ct1  O  O 1.745E-01  6.304E+00  1.200E+01               -1  1.0 0.00  1058
 227  C  9  ct1  H  H 1.745E-01  6.304E+00  1.200E+01                1  1.0 0.00  1004
 228  C  9  ct1  H  C 1.745E-01  6.304E+00  1.200E+01                1  1.0 0.00  1015
 229  C  9  ct1  H  O 1.745E-01  6.304E+00  1.200E+01                1  1.0 0.00  1026
 230  C  9  ct1  C  C 1.745E-01  6.304E+00  1.200E+01                1  1.0 0.00  1037
 231  C  9  ct1  C  O 1.745E-01  6.304E+00  1.200E+01                1  1.0 0.00  1048
 232  C  9  ct1  O  O 1.745E-01  6.304E+00  1.200E+01                1  1.0 0.00  1059
 233  C  9  ct1  H  H 3.322E-01  4.569E+00  1.200E+01               -1  1.0 0.00  1001
 234  C  9  ct1  H  C 3.322E-01  4.569E+00  1.200E+01               -1  1.0 0.00  1012
 235  C  9  ct1  H  O 3.322E-01  4.569E+00  1.200E+01               -1  1.0 0.00  1023
 236  C  9  ct1  C  C 3.322E-01  4.569E+00  1.200E+01               -1  1.0 0.00  1034
 237  C  9  ct1  C  O 3.322E-01  4.569E+00  1.200E+01               -1  1.0 0.00  1045
 238  C  9  ct1  O  O 3.322E-01  4.569E+00  1.200E+01               -1  1.0 0.00  1056
 239  C  9  ct1  H  H 3.322E-01  4.569E+00  1.200E+01                1  1.0 0.00  1002
 240  C  9  ct1  H  C 3.322E-01  4.569E+00  1.200E+01                1  1.0 0.00  1013
 241  C  9  ct1  H  O 3.322E-01  4.569E+00  1.200E+01                1  1.0 0.00  1024
 242  C  9  ct1  C  C 3.322E-01  4.569E+00  1.200E+01                1  1.0 0.00  1035
 243  C  9  ct1  C  O 3.322E-01  4.569E+00  1.200E+01                1  1.0 0.00  1046
 244  C  9  ct1  O  O 3.322E-01  4.569E+00  1.200E+01                1  1.0 0.00  1057
 245  C  9  ct1  H  H 6.325E-01  3.311E+00  1.200E+01               -1  1.0 0.00   999
 246  C  9  ct1  H  C 6.325E-01  3.311E+00  1.200E+01               -1  1.0 0.00  1010
 247  C  9  ct1  H  O 6.325E-01  3.311E+00  1.200E+01               -1  1.0 0.00  1021
 248  C  9  ct1  C  C 6.325E-01  3.311E+00  1.200E+01               -1  1.0 0.00  1032
 249  C  9  ct1  C  O 6.325E-01  3.311E+00  1.200E+01               -1  1.0 0.00  1043
 250  C  9  ct1  O  O 6.325E-01  3.311E+00  1.200E+01               -1  1.0 0.00  1054
 251  C  9  ct1  H  H 6.325E-01  3.311E+00  1.200E+01                1  1.0 0.00  1000
 252  C  9  ct1  H  C 6.325E-01  3.311E+00  1.200E+01                1  1.0 0.00  1011
 253  C  9  ct1  H  O 6.325E-01  3.311E+00  1.200E+01                1  1.0 0.00  1022
 254  C  9  ct1  C  C 6.325E-01  3.311E+00  1.200E+01                1  1.0 0.00  1033
 255  C  9  ct1  C  O 6.325E-01  3.311E+00  1.200E+01                1  1.0 0.00  1044
 256  C  9  ct1  O  O 6.325E-01  3.311E+00  1.200E+01                1  1.0 0.00  1055
 257  C  9  ct1  H  H 1.204E+00  2.400E+00  1.200E+01               -1  1.0 0.00   997
 258  C  9  ct1  H  C 1.204E+00  2.400E+00  1.200E+01               -1  1.0 0.00  1008
 259  C  9  ct1  H  O 1.204E+00  2.400E+00  1.200E+01               -1  1.0 0.00  1019
 260  C  9  ct1  C  C 1.204E+00  2.400E+00  1.200E+01               -1  1.0 0.00  1030
 261  C  9  ct1  C  O 1.204E+00  2.400E+00  1.200E+01               -1  1.0 0.00  1041
 262  C  9  ct1  H  H 1.204E+00  2.400E+00  1.200E+01                1  1.0 0.00   998
 263  C  9  ct1  H  C 1.204E+00  2.400E+00  1.200E+01                1  1.0 0.00  1009
 264  C  9  ct1  H  O 1.204E+00  2.400E+00  1.200E+01                1  1.0 0.00  1020
 265  C  9  ct1  C  C 1.204E+00  2.400E+00  1.200E+01                1  1.0 0.00  1031
 266  C  9  ct1  C  O 1.204E+00  2.400E+00  1.200E+01                1  1.0 0.00  1042
-------------------------------------------------------------------------------------------------
Short range atomic symmetry functions element  O :
-------------------------------------------------------------------------------------------------
 ind ec tp sbtp e1 e2       eta      rs/rl         rc   angl   angr la zeta    a    ln
-------------------------------------------------------------------------------------------------
   1  O  2  ct1  H    6.944E-03  0.000E+00  1.200E+01                       0.00   192
   2  O  2  ct1  C    6.944E-03  0.000E+00  1.200E+01                       0.00   198
   3  O  2  ct1  O    6.944E-03  0.000E+00  1.200E+01                       0.00   204
   4  O  2  ct1  H    1.389E-02  0.000E+00  1.200E+01                       0.00   193
   5  O  2  ct1  C    1.389E-02  0.000E+00  1.200E+01                       0.00   199
   6  O  2  ct1  O    1.389E-02  0.000E+00  1.200E+01                       0.00   205
   7  O  2  ct1  H    2.778E-02  0.000E+00  1.200E+01                       0.00   194
   8  O  2  ct1  C    2.778E-02  0.000E+00  1.200E+01                       0.00   200
   9  O  2  ct1  O    2.778E-02  0.000E+00  1.200E+01                       0.00   206
  10  O  2  ct1  H    5.556E-02  0.000E+00  1.200E+01                       0.00   195
  11  O  2  ct1  C    5.556E-02  0.000E+00  1.200E+01                       0.00   201
  12  O  2  ct1  O    5.556E-02  0.000E+00  1.200E+01                       0.00   207
  13  O  2  ct1  H    9.168E-02  8.697E+00  1.200E+01                       0.00   689
  14  O  2  ct1  C    9.168E-02  8.697E+00  1.200E+01                       0.00   695
  15  O  2  ct1  O    9.168E-02  8.697E+00  1.200E+01                       0.00   701
  16  O  2  ct1  H    1.111E-01  0.000E+00  1.200E+01                       0.00   196
  17  O  2  ct1  C    1.111E-01  0.000E+00  1.200E+01                       0.00   202
  18  O  2  ct1  O    1.111E-01  0.000E+00  1.200E+01                       0.00   208
  19  O  2  ct1  H    1.745E-01  6.304E+00  1.200E+01                       0.00   688
  20  O  2  ct1  C    1.745E-01  6.304E+00  1.200E+01                       0.00   694
  21  O  2  ct1  O    1.745E-01  6.304E+00  1.200E+01                       0.00   700
  22  O  2  ct1  H    3.322E-01  4.569E+00  1.200E+01                       0.00   687
  23  O  2  ct1  C    3.322E-01  4.569E+00  1.200E+01                       0.00   693
  24  O  2  ct1  O    3.322E-01  4.569E+00  1.200E+01                       0.00   699
  25  O  2  ct1  H    6.325E-01  3.311E+00  1.200E+01                       0.00   686
  26  O  2  ct1  C    6.325E-01  3.311E+00  1.200E+01                       0.00   692
  27  O  2  ct1  O    6.325E-01  3.311E+00  1.200E+01                       0.00   698
  28  O  2  ct1  H    1.204E+00  2.400E+00  1.200E+01                       0.00   685
  29  O  2  ct1  C    1.204E+00  2.400E+00  1.200E+01                       0.00   691
  30  O  2  ct1  O    1.204E+00  2.400E+00  1.200E+01                       0.00   697
  31  O  3  ct1  H  H 6.944E-03  0.000E+00  1.200E+01               -1  1.0 0.00   357
  32  O  3  ct1  H  C 6.944E-03  0.000E+00  1.200E+01               -1  1.0 0.00   368
  33  O  3  ct1  H  O 6.944E-03  0.000E+00  1.200E+01               -1  1.0 0.00   379
  34  O  3  ct1  C  C 6.944E-03  0.000E+00  1.200E+01               -1  1.0 0.00   390
  35  O  3  ct1  C  O 6.944E-03  0.000E+00  1.200E+01               -1  1.0 0.00   401
  36  O  3  ct1  O  O 6.944E-03  0.000E+00  1.200E+01               -1  1.0 0.00   412
  37  O  3  ct1  H  H 6.944E-03  0.000E+00  1.200E+01                1  1.0 0.00   358
  38  O  3  ct1  H  C 6.944E-03  0.000E+00  1.200E+01                1  1.0 0.00   369
  39  O  3  ct1  H  O 6.944E-03  0.000E+00  1.200E+01                1  1.0 0.00   380
  40  O  3  ct1  C  C 6.944E-03  0.000E+00  1.200E+01                1  1.0 0.00   391
  41  O  3  ct1  C  O 6.944E-03  0.000E+00  1.200E+01                1  1.0 0.00   402
  42  O  3  ct1  O  O 6.944E-03  0.000E+00  1.200E+01                1  1.0 0.00   413
  43  O  3  ct1  H  H 1.389E-02  0.000E+00  1.200E+01               -1  1.0 0.00   359
  44  O  3  ct1  H  C 1.389E-02  0.000E+00  1.200E+01               -1  1.0 0.00   370
  45  O  3  ct1  H  O 1.389E-02  0.000E+00  1.200E+01               -1  1.0 0.00   381
  46  O  3  ct1  C  C 1.389E-02  0.000E+00  1.200E+01               -1  1.0 0.00   392
  47  O  3  ct1  C  O 1.389E-02  0.000E+00  1.200E+01               -1  1.0 0.00   403
  48  O  3  ct1  O  O 1.389E-02  0.000E+00  1.200E+01               -1  1.0 0.00   414
  49  O  3  ct1  H  H 1.389E-02  0.000E+00  1.200E+01                1  1.0 0.00   360
  50  O  3  ct1  H  C 1.389E-02  0.000E+00  1.200E+01                1  1.0 0.00   371
  51  O  3  ct1  H  O 1.389E-02  0.000E+00  1.200E+01                1  1.0 0.00   382
  52  O  3  ct1  C  C 1.389E-02  0.000E+00  1.200E+01                1  1.0 0.00   393
  53  O  3  ct1  C  O 1.389E-02  0.000E+00  1.200E+01                1  1.0 0.00   404
  54  O  3  ct1  O  O 1.389E-02  0.000E+00  1.200E+01                1  1.0 0.00   415
  55  O  3  ct1  H  H 2.778E-02  0.000E+00  1.200E+01               -1  1.0 0.00   361
  56  O  3  ct1  H  C 2.778E-02  0.000E+00  1.200E+01               -1  1.0 0.00   372
  57  O  3  ct1  H  O 2.778E-02  0.000E+00  1.200E+01               -1  1.0 0.00   383
  58  O  3  ct1  C  C 2.778E-02  0.000E+00  1.200E+01               -1  1.0 0.00   394
  59  O  3  ct1  C  O 2.778E-02  0.000E+00  1.200E+01               -1  1.0 0.00   405
  60  O  3  ct1  O  O 2.778E-02  0.000E+00  1.200E+01               -1  1.0 0.00   416
  61  O  3  ct1  H  H 2.778E-02  0.000E+00  1.200E+01                1  1.0 0.00   362
  62  O  3  ct1  H  C 2.778E-02  0.000E+00  1.200E+01                1  1.0 0.00   373
  63  O  3  ct1  H  O 2.778E-02  0.000E+00  1.200E+01                1  1.0 0.00   384
  64  O  3  ct1  C  C 2.778E-02  0.000E+00  1.200E+01                1  1.0 0.00   395
  65  O  3  ct1  C  O 2.778E-02  0.000E+00  1.200E+01                1  1.0 0.00   406
  66  O  3  ct1  O  O 2.778E-02  0.000E+00  1.200E+01                1  1.0 0.00   417
  67  O  3  ct1  H  H 5.556E-02  0.000E+00  1.200E+01               -1  1.0 0.00   363
  68  O  3  ct1  H  C 5.556E-02  0.000E+00  1.200E+01               -1  1.0 0.00   374
  69  O  3  ct1  H  O 5.556E-02  0.000E+00  1.200E+01               -1  1.0 0.00   385
  70  O  3  ct1  C  C 5.556E-02  0.000E+00  1.200E+01               -1  1.0 0.00   396
  71  O  3  ct1  C  O 5.556E-02  0.000E+00  1.200E+01               -1  1.0 0.00   407
  72  O  3  ct1  O  O 5.556E-02  0.000E+00  1.200E+01               -1  1.0 0.00   418
  73  O  3  ct1  H  H 5.556E-02  0.000E+00  1.200E+01                1  1.0 0.00   364
  74  O  3  ct1  H  C 5.556E-02  0.000E+00  1.200E+01                1  1.0 0.00   375
  75  O  3  ct1  H  O 5.556E-02  0.000E+00  1.200E+01                1  1.0 0.00   386
  76  O  3  ct1  C  C 5.556E-02  0.000E+00  1.200E+01                1  1.0 0.00   397
  77  O  3  ct1  C  O 5.556E-02  0.000E+00  1.200E+01                1  1.0 0.00   408
  78  O  3  ct1  O  O 5.556E-02  0.000E+00  1.200E+01                1  1.0 0.00   419
  79  O  3  ct1  H  H 9.168E-02  8.697E+00  1.200E+01               -1  1.0 0.00   858
  80  O  3  ct1  H  C 9.168E-02  8.697E+00  1.200E+01               -1  1.0 0.00   869
  81  O  3  ct1  H  O 9.168E-02  8.697E+00  1.200E+01               -1  1.0 0.00   880
  82  O  3  ct1  C  C 9.168E-02  8.697E+00  1.200E+01               -1  1.0 0.00   891
  83  O  3  ct1  C  O 9.168E-02  8.697E+00  1.200E+01               -1  1.0 0.00   902
  84  O  3  ct1  O  O 9.168E-02  8.697E+00  1.200E+01               -1  1.0 0.00   913
  85  O  3  ct1  H  H 9.168E-02  8.697E+00  1.200E+01                1  1.0 0.00   859
  86  O  3  ct1  H  C 9.168E-02  8.697E+00  1.200E+01                1  1.0 0.00   870
  87  O  3  ct1  H  O 9.168E-02  8.697E+00  1.200E+01                1  1.0 0.00   881
  88  O  3  ct1  C  C 9.168E-02  8.697E+00  1.200E+01                1  1.0 0.00   892
  89  O  3  ct1  C  O 9.168E-02  8.697E+00  1.200E+01                1  1.0 0.00   903
  90  O  3  ct1  O  O 9.168E-02  8.697E+00  1.200E+01                1  1.0 0.00   914
  91  O  3  ct1  H  H 1.111E-01  0.000E+00  1.200E+01               -1  1.0 0.00   365
  92  O  3  ct1  H  C 1.111E-01  0.000E+00  1.200E+01               -1  1.0 0.00   376
  93  O  3  ct1  H  O 1.111E-01  0.000E+00  1.200E+01               -1  1.0 0.00   387
  94  O  3  ct1  C  C 1.111E-01  0.000E+00  1.200E+01               -1  1.0 0.00   398
  95  O  3  ct1  C  O 1.111E-01  0.000E+00  1.200E+01               -1  1.0 0.00   409
  96  O  3  ct1  H  H 1.111E-01  0.000E+00  1.200E+01                1  1.0 0.00   366
  97  O  3  ct1  H  C 1.111E-01  0.000E+00  1.200E+01                1  1.0 0.00   377
  98  O  3  ct1  H  O 1.111E-01  0.000E+00  1.200E+01                1  1.0 0.00   388
  99  O  3  ct1  C  C 1.111E-01  0.000E+00  1.200E+01                1  1.0 0.00   399
 100  O  3  ct1  C  O 1.111E-01  0.000E+00  1.200E+01                1  1.0 0.00   410
 101  O  3  ct1  O  O 1.111E-01  0.000E+00  1.200E+01                1  1.0 0.00   421
 102  O  3  ct1  H  H 1.745E-01  6.304E+00  1.200E+01               -1  1.0 0.00   856
 103  O  3  ct1  H  C 1.745E-01  6.304E+00  1.200E+01               -1  1.0 0.00   867
 104  O  3  ct1  H  O 1.745E-01  6.304E+00  1.200E+01               -1  1.0 0.00   878
 105  O  3  ct1  C  C 1.745E-01  6.304E+00  1.200E+01               -1  1.0 0.00   889
 106  O  3  ct1  C  O 1.745E-01  6.304E+00  1.200E+01               -1  1.0 0.00   900
 107  O  3  ct1  O  O 1.745E-01  6.304E+00  1.200E+01               -1  1.0 0.00   911
 108  O  3  ct1  H  H 1.745E-01  6.304E+00  1.200E+01                1  1.0 0.00   857
 109  O  3  ct1  H  C 1.745E-01  6.304E+00  1.200E+01                1  1.0 0.00   868
 110  O  3  ct1  H  O 1.745E-01  6.304E+00  1.200E+01                1  1.0 0.00   879
 111  O  3  ct1  C  C 1.745E-01  6.304E+00  1.200E+01                1  1.0 0.00   890
 112  O  3  ct1  C  O 1.745E-01  6.304E+00  1.200E+01                1  1.0 0.00   901
 113  O  3  ct1  O  O 1.745E-01  6.304E+00  1.200E+01                1  1.0 0.00   912
 114  O  3  ct1  H  H 3.322E-01  4.569E+00  1.200E+01               -1  1.0 0.00   854
 115  O  3  ct1  H  C 3.322E-01  4.569E+00  1.200E+01               -1  1.0 0.00   865
 116  O  3  ct1  H  O 3.322E-01  4.569E+00  1.200E+01               -1  1.0 0.00   876
 117  O  3  ct1  C  C 3.322E-01  4.569E+00  1.200E+01               -1  1.0 0.00   887
 118  O  3  ct1  C  O 3.322E-01  4.569E+00  1.200E+01               -1  1.0 0.00   898
 119  O  3  ct1  O  O 3.322E-01  4.569E+00  1.200E+01               -1  1.0 0.00   909
 120  O  3  ct1  H  H 3.322E-01  4.569E+00  1.200E+01                1  1.0 0.00   855
 121  O  3  ct1  H  C 3.322E-01  4.569E+00  1.200E+01                1  1.0 0.00   866
 122  O  3  ct1  H  O 3.322E-01  4.569E+00  1.200E+01                1  1.0 0.00   877
 123  O  3  ct1  C  C 3.322E-01  4.569E+00  1.200E+01                1  1.0 0.00   888
 124  O  3  ct1  C  O 3.322E-01  4.569E+00  1.200E+01                1  1.0 0.00   899
 125  O  3  ct1  O  O 3.322E-01  4.569E+00  1.200E+01                1  1.0 0.00   910
 126  O  3  ct1  H  H 6.325E-01  3.311E+00  1.200E+01               -1  1.0 0.00   852
 127  O  3  ct1  H  C 6.325E-01  3.311E+00  1.200E+01               -1  1.0 0.00   863
 128  O  3  ct1  H  O 6.325E-01  3.311E+00  1.200E+01               -1  1.0 0.00   874
 129  O  3  ct1  C  C 6.325E-01  3.311E+00  1.200E+01               -1  1.0 0.00   885
 130  O  3  ct1  C  O 6.325E-01  3.311E+00  1.200E+01               -1  1.0 0.00   896
 131  O  3  ct1  O  O 6.325E-01  3.311E+00  1.200E+01               -1  1.0 0.00   907
 132  O  3  ct1  H  H 6.325E-01  3.311E+00  1.200E+01                1  1.0 0.00   853
 133  O  3  ct1  H  C 6.325E-01  3.311E+00  1.200E+01                1  1.0 0.00   864
 134  O  3  ct1  H  O 6.325E-01  3.311E+00  1.200E+01                1  1.0 0.00   875
 135  O  3  ct1  C  C 6.325E-01  3.311E+00  1.200E+01                1  1.0 0.00   886
 136  O  3  ct1  C  O 6.325E-01  3.311E+00  1.200E+01                1  1.0 0.00   897
 137  O  3  ct1  O  O 6.325E-01  3.311E+00  1.200E+01                1  1.0 0.00   908
 138  O  3  ct1  H  H 1.204E+00  2.400E+00  1.200E+01               -1  1.0 0.00   850
 139  O  3  ct1  H  C 1.204E+00  2.400E+00  1.200E+01               -1  1.0 0.00   861
 140  O  3  ct1  C  C 1.204E+00  2.400E+00  1.200E+01               -1  1.0 0.00   883
 141  O  3  ct1  H  H 1.204E+00  2.400E+00  1.200E+01                1  1.0 0.00   851
 142  O  3  ct1  H  C 1.204E+00  2.400E+00  1.200E+01                1  1.0 0.00   862
 143  O  3  ct1  H  O 1.204E+00  2.400E+00  1.200E+01                1  1.0 0.00   873
 144  O  3  ct1  C  C 1.204E+00  2.400E+00  1.200E+01                1  1.0 0.00   884
 145  O  9  ct1  H  H 6.944E-03  0.000E+00  1.200E+01               -1  1.0 0.00   570
 146  O  9  ct1  H  C 6.944E-03  0.000E+00  1.200E+01               -1  1.0 0.00   581
 147  O  9  ct1  H  O 6.944E-03  0.000E+00  1.200E+01               -1  1.0 0.00   592
 148  O  9  ct1  C  C 6.944E-03  0.000E+00  1.200E+01               -1  1.0 0.00   603
 149  O  9  ct1  C  O 6.944E-03  0.000E+00  1.200E+01               -1  1.0 0.00   614
 150  O  9  ct1  O  O 6.944E-03  0.000E+00  1.200E+01               -1  1.0 0.00   625
 151  O  9  ct1  H  H 6.944E-03  0.000E+00  1.200E+01                1  1.0 0.00   571
 152  O  9  ct1  H  C 6.944E-03  0.000E+00  1.200E+01                1  1.0 0.00   582
 153  O  9  ct1  H  O 6.944E-03  0.000E+00  1.200E+01                1  1.0 0.00   593
 154  O  9  ct1  C  C 6.944E-03  0.000E+00  1.200E+01                1  1.0 0.00   604
 155  O  9  ct1  C  O 6.944E-03  0.000E+00  1.200E+01                1  1.0 0.00   615
 156  O  9  ct1  O  O 6.944E-03  0.000E+00  1.200E+01                1  1.0 0.00   626
 157  O  9  ct1  H  H 1.389E-02  0.000E+00  1.200E+01               -1  1.0 0.00   572
 158  O  9  ct1  H  C 1.389E-02  0.000E+00  1.200E+01               -1  1.0 0.00   583
 159  O  9  ct1  H  O 1.389E-02  0.000E+00  1.200E+01               -1  1.0 0.00   594
 160  O  9  ct1  C  C 1.389E-02  0.000E+00  1.200E+01               -1  1.0 0.00   605
 161  O  9  ct1  C  O 1.389E-02  0.000E+00  1.200E+01               -1  1.0 0.00   616
 162  O  9  ct1  O  O 1.389E-02  0.000E+00  1.200E+01               -1  1.0 0.00   627
 163  O  9  ct1  H  H 1.389E-02  0.000E+00  1.200E+01                1  1.0 0.00   573
 164  O  9  ct1  H  C 1.389E-02  0.000E+00  1.200E+01                1  1.0 0.00   584
 165  O  9  ct1  H  O 1.389E-02  0.000E+00  1.200E+01                1  1.0 0.00   595
 166  O  9  ct1  C  C 1.389E-02  0.000E+00  1.200E+01                1  1.0 0.00   606
 167  O  9  ct1  C  O 1.389E-02  0.000E+00  1.200E+01                1  1.0 0.00   617
 168  O  9  ct1  O  O 1.389E-02  0.000E+00  1.200E+01                1  1.0 0.00   628
 169  O  9  ct1  H  H 2.778E-02  0.000E+00  1.200E+01               -1  1.0 0.00   574
 170  O  9  ct1  H  C 2.778E-02  0.000E+00  1.200E+01               -1  1.0 0.00   585
 171  O  9  ct1  H  O 2.778E-02  0.000E+00  1.200E+01               -1  1.0 0.00   596
 172  O  9  ct1  C  C 2.778E-02  0.000E+00  1.200E+01               -1  1.0 0.00   607
 173  O  9  ct1  C  O 2.778E-02  0.000E+00  1.200E+01               -1  1.0 0.00   618
 174  O  9  ct1  O  O 2.778E-02  0.000E+00  1.200E+01               -1  1.0 0.00   629
 175  O  9  ct1  H  H 2.778E-02  0.000E+00  1.200E+01                1  1.0 0.00   575
 176  O  9  ct1  H  C 2.778E-02  0.000E+00  1.200E+01                1  1.0 0.00   586
 177  O  9  ct1  H  O 2.778E-02  0.000E+00  1.200E+01                1  1.0 0.00   597
 178  O  9  ct1  C  C 2.778E-02  0.000E+00  1.200E+01                1  1.0 0.00   608
 179  O  9  ct1  C  O 2.778E-02  0.000E+00  1.200E+01                1  1.0 0.00   619
 180  O  9  ct1  O  O 2.778E-02  0.000E+00  1.200E+01                1  1.0 0.00   630
 181  O  9  ct1  H  H 5.556E-02  0.000E+00  1.200E+01               -1  1.0 0.00   576
 182  O  9  ct1  H  C 5.556E-02  0.000E+00  1.200E+01               -1  1.0 0.00   587
 183  O  9  ct1  H  O 5.556E-02  0.000E+00  1.200E+01               -1  1.0 0.00   598
 184  O  9  ct1  C  C 5.556E-02  0.000E+00  1.200E+01               -1  1.0 0.00   609
 185  O  9  ct1  C  O 5.556E-02  0.000E+00  1.200E+01               -1  1.0 0.00   620
 186  O  9  ct1  O  O 5.556E-02  0.000E+00  1.200E+01               -1  1.0 0.00   631
 187  O  9  ct1  H  H 5.556E-02  0.000E+00  1.200E+01                1  1.0 0.00   577
 188  O  9  ct1  H  C 5.556E-02  0.000E+00  1.200E+01                1  1.0 0.00   588
 189  O  9  ct1  H  O 5.556E-02  0.000E+00  1.200E+01                1  1.0 0.00   599
 190  O  9  ct1  C  C 5.556E-02  0.000E+00  1.200E+01                1  1.0 0.00   610
 191  O  9  ct1  C  O 5.556E-02  0.000E+00  1.200E+01                1  1.0 0.00   621
 192  O  9  ct1  O  O 5.556E-02  0.000E+00  1.200E+01                1  1.0 0.00   632
 193  O  9  ct1  H  H 9.168E-02  8.697E+00  1.200E+01               -1  1.0 0.00  1071
 194  O  9  ct1  H  C 9.168E-02  8.697E+00  1.200E+01               -1  1.0 0.00  1082
 195  O  9  ct1  H  O 9.168E-02  8.697E+00  1.200E+01               -1  1.0 0.00  1093
 196  O  9  ct1  C  C 9.168E-02  8.697E+00  1.200E+01               -1  1.0 0.00  1104
 197  O  9  ct1  C  O 9.168E-02  8.697E+00  1.200E+01               -1  1.0 0.00  1115
 198  O  9  ct1  O  O 9.168E-02  8.697E+00  1.200E+01               -1  1.0 0.00  1126
 199  O  9  ct1  H  H 9.168E-02  8.697E+00  1.200E+01                1  1.0 0.00  1072
 200  O  9  ct1  H  C 9.168E-02  8.697E+00  1.200E+01                1  1.0 0.00  1083
 201  O  9  ct1  H  O 9.168E-02  8.697E+00  1.200E+01                1  1.0 0.00  1094
 202  O  9  ct1  C  C 9.168E-02  8.697E+00  1.200E+01                1  1.0 0.00  1105
 203  O  9  ct1  C  O 9.168E-02  8.697E+00  1.200E+01                1  1.0 0.00  1116
 204  O  9  ct1  O  O 9.168E-02  8.697E+00  1.200E+01                1  1.0 0.00  1127
 205  O  9  ct1  H  H 1.111E-01  0.000E+00  1.200E+01               -1  1.0 0.00   578
 206  O  9  ct1  H  C 1.111E-01  0.000E+00  1.200E+01               -1  1.0 0.00   589
 207  O  9  ct1  H  O 1.111E-01  0.000E+00  1.200E+01               -1  1.0 0.00   600
 208  O  9  ct1  C  C 1.111E-01  0.000E+00  1.200E+01               -1  1.0 0.00   611
 209  O  9  ct1  C  O 1.111E-01  0.000E+00  1.200E+01               -1  1.0 0.00   622
 210  O  9  ct1  O  O 1.111E-01  0.000E+00  1.200E+01               -1  1.0 0.00   633
 211  O  9  ct1  H  H 1.111E-01  0.000E+00  1.200E+01                1  1.0 0.00   579
 212  O  9  ct1  H  C 1.111E-01  0.000E+00  1.200E+01                1  1.0 0.00   590
 213  O  9  ct1  H  O 1.111E-01  0.000E+00  1.200E+01                1  1.0 0.00   601
 214  O  9  ct1  C  C 1.111E-01  0.000E+00  1.200E+01                1  1.0 0.00   612
 215  O  9  ct1  C  O 1.111E-01  0.000E+00  1.200E+01                1  1.0 0.00   623
 216  O  9  ct1  O  O 1.111E-01  0.000E+00  1.200E+01                1  1.0 0.00   634
 217  O  9  ct1  H  H 1.745E-01  6.304E+00  1.200E+01               -1  1.0 0.00  1069
 218  O  9  ct1  H  C 1.745E-01  6.304E+00  1.200E+01               -1  1.0 0.00  1080
 219  O  9  ct1  H  O 1.745E-01  6.304E+00  1.200E+01               -1  1.0 0.00  1091
 220  O  9  ct1  C  C 1.745E-01  6.304E+00  1.200E+01               -1  1.0 0.00  1102
 221  O  9  ct1  C  O 1.745E-01  6.304E+00  1.200E+01               -1  1.0 0.00  1113
 222  O  9  ct1  O  O 1.745E-01  6.304E+00  1.200E+01               -1  1.0 0.00  1124
 223  O  9  ct1  H  H 1.745E-01  6.304E+00  1.200E+01                1  1.0 0.00  1070
 224  O  9  ct1  H  C 1.745E-01  6.304E+00  1.200E+01                1  1.0 0.00  1081
 225  O  9  ct1  H  O 1.745E-01  6.304E+00  1.200E+01                1  1.0 0.00  1092
 226  O  9  ct1  C  C 1.745E-01  6.304E+00  1.200E+01                1  1.0 0.00  1103
 227  O  9  ct1  C  O 1.745E-01  6.304E+00  1.200E+01                1  1.0 0.00  1114
 228  O  9  ct1  O  O 1.745E-01  6.304E+00  1.200E+01                1  1.0 0.00  1125
 229  O  9  ct1  H  H 3.322E-01  4.569E+00  1.200E+01               -1  1.0 0.00  1067
 230  O  9  ct1  H  C 3.322E-01  4.569E+00  1.200E+01               -1  1.0 0.00  1078
 231  O  9  ct1  H  O 3.322E-01  4.569E+00  1.200E+01               -1  1.0 0.00  1089
 232  O  9  ct1  C  C 3.322E-01  4.569E+00  1.200E+01               -1  1.0 0.00  1100
 233  O  9  ct1  C  O 3.322E-01  4.569E+00  1.200E+01               -1  1.0 0.00  1111
 234  O  9  ct1  O  O 3.322E-01  4.569E+00  1.200E+01               -1  1.0 0.00  1122
 235  O  9  ct1  H  H 3.322E-01  4.569E+00  1.200E+01                1  1.0 0.00  1068
 236  O  9  ct1  H  C 3.322E-01  4.569E+00  1.200E+01                1  1.0 0.00  1079
 237  O  9  ct1  H  O 3.322E-01  4.569E+00  1.200E+01                1  1.0 0.00  1090
 238  O  9  ct1  C  C 3.322E-01  4.569E+00  1.200E+01                1  1.0 0.00  1101
 239  O  9  ct1  C  O 3.322E-01  4.569E+00  1.200E+01                1  1.0 0.00  1112
 240  O  9  ct1  O  O 3.322E-01  4.569E+00  1.200E+01                1  1.0 0.00  1123
 241  O  9  ct1  H  H 6.325E-01  3.311E+00  1.200E+01               -1  1.0 0.00  1065
 242  O  9  ct1  H  C 6.325E-01  3.311E+00  1.200E+01               -1  1.0 0.00  1076
 243  O  9  ct1  H  O 6.325E-01  3.311E+00  1.200E+01               -1  1.0 0.00  1087
 244  O  9  ct1  C  C 6.325E-01  3.311E+00  1.200E+01               -1  1.0 0.00  1098
 245  O  9  ct1  C  O 6.325E-01  3.311E+00  1.200E+01               -1  1.0 0.00  1109
 246  O  9  ct1  O  O 6.325E-01  3.311E+00  1.200E+01               -1  1.0 0.00  1120
 247  O  9  ct1  H  H 6.325E-01  3.311E+00  1.200E+01                1  1.0 0.00  1066
 248  O  9  ct1  H  C 6.325E-01  3.311E+00  1.200E+01                1  1.0 0.00  1077
 249  O  9  ct1  H  O 6.325E-01  3.311E+00  1.200E+01                1  1.0 0.00  1088
 250  O  9  ct1  C  C 6.325E-01  3.311E+00  1.200E+01                1  1.0 0.00  1099
 251  O  9  ct1  C  O 6.325E-01  3.311E+00  1.200E+01                1  1.0 0.00  1110
 252  O  9  ct1  O  O 6.325E-01  3.311E+00  1.200E+01                1  1.0 0.00  1121
 253  O  9  ct1  H  H 1.204E+00  2.400E+00  1.200E+01               -1  1.0 0.00  1063
 254  O  9  ct1  H  C 1.204E+00  2.400E+00  1.200E+01               -1  1.0 0.00  1074
 255  O  9  ct1  H  O 1.204E+00  2.400E+00  1.200E+01               -1  1.0 0.00  1085
 256  O  9  ct1  C  C 1.204E+00  2.400E+00  1.200E+01               -1  1.0 0.00  1096
 257  O  9  ct1  C  O 1.204E+00  2.400E+00  1.200E+01               -1  1.0 0.00  1107
 258  O  9  ct1  H  H 1.204E+00  2.400E+00  1.200E+01                1  1.0 0.00  1064
 259  O  9  ct1  H  C 1.204E+00  2.400E+00  1.200E+01                1  1.0 0.00  1075
 260  O  9  ct1  H  O 1.204E+00  2.400E+00  1.200E+01                1  1.0 0.00  1086
 261  O  9  ct1  C  C 1.204E+00  2.400E+00  1.200E+01                1  1.0 0.00  1097
 262  O  9  ct1  C  O 1.204E+00  2.400E+00  1.200E+01                1  1.0 0.00  1108
-------------------------------------------------------------------------------------------------
Minimum cutoff radius for element  H: 12.000000
Minimum cutoff radius for element  C: 12.000000
Minimum cutoff radius for element  O: 12.000000
Maximum cutoff radius (global)      : 12.000000
*******************************************************************************

*** SETUP: SYMMETRY FUNCTION MEMORY *******************************************

Symmetry function derivatives memory table for element  H :
-------------------------------------------------------------------------------
Relevant symmetry functions for neighbors with element:
-  H:  130 of  269 ( 48.3 %)
-  C:  130 of  269 ( 48.3 %)
-  O:  129 of  269 ( 48.0 %)
-------------------------------------------------------------------------------
Symmetry function derivatives memory table for element  C :
-------------------------------------------------------------------------------
Relevant symmetry functions for neighbors with element:
-  H:  130 of  266 ( 48.9 %)
-  C:  130 of  266 ( 48.9 %)
-  O:  126 of  266 ( 47.4 %)
-------------------------------------------------------------------------------
Symmetry function derivatives memory table for element  O :
-------------------------------------------------------------------------------
Relevant symmetry functions for neighbors with element:
-  H:  129 of  262 ( 49.2 %)
-  C:  128 of  262 ( 48.9 %)
-  O:  122 of  262 ( 46.6 %)
-------------------------------------------------------------------------------
*******************************************************************************

*** SETUP: SYMMETRY FUNCTION CACHE ********************************************

Element  H: in total 6 caches, used 129.67 times on average.
Element  C: in total 6 caches, used 128.67 times on average.
Element  O: in total 6 caches, used 126.33 times on average.
*******************************************************************************

*** SETUP: SYMMETRY FUNCTION GROUPS *******************************************

Abbreviations:
--------------
ind .... Symmetry function index.
ec ..... Central atom element.
tp ..... Symmetry function type.
sbtp ... Symmetry function subtype (e.g. cutoff type).
e1 ..... Neighbor 1 element.
e2 ..... Neighbor 2 element.
eta .... Gaussian width eta.
rs/rl... Shift distance of Gaussian or left cutoff radius for polynomial.
angl.... Left cutoff angle for polynomial.
angr.... Right cutoff angle for polynomial.
la ..... Angle prefactor lambda.
zeta ... Angle term exponent zeta.
rc ..... Cutoff radius / right cutoff radius for polynomial.
a ...... Free parameter alpha (e.g. cutoff alpha).
ln ..... Line number in settings file.
mi ..... Member index.
sfi .... Symmetry function index.
e ...... Recalculate exponential term.

Short range atomic symmetry function groups element  H :
----------------------------------------------------------------------------------------------------------
 ind ec tp sbtp e1 e2       eta      rs/rl         rc   angl   angr la zeta    a    ln   mi  sfi e
----------------------------------------------------------------------------------------------------------
   1  H  2  ct1  H            *          *  1.200E+01                       0.00     *    *    *  
   -  -  -    -  -    6.944E-03  0.000E+00          -                          -   156    1    1  
[...]
 212  9.04E-02  7.73E-01  3.98E-01  6.41E-02  1.56E+01  0.00  1.00 4
 213  0.00E+00  2.35E-01  4.28E-02  3.09E-02  3.24E+01  0.00  1.00 4
 214  4.77E-02  2.43E-01  1.23E-01  1.90E-02  5.27E+01  0.00  1.00 4
 215  0.00E+00  7.03E-02  1.25E-02  8.70E-03  1.15E+02  0.00  1.00 4
 216  0.00E+00  5.51E-03  2.57E-04  3.81E-04  2.62E+03  0.00  1.00 4
 217  3.10E+00  3.39E+01  1.29E+01  3.78E+00  2.65E-01  0.00  1.00 4
 218  6.60E+00  5.75E+01  2.19E+01  5.93E+00  1.69E-01  0.00  1.00 4
 219  0.00E+00  1.47E+01  4.97E+00  2.11E+00  4.74E-01  0.00  1.00 4
 220  1.45E+00  4.01E+01  8.76E+00  3.32E+00  3.01E-01  0.00  1.00 4
 221  0.00E+00  1.33E+01  4.54E+00  1.93E+00  5.17E-01  0.00  1.00 4
 222  0.00E+00  2.63E+00  4.12E-01  3.33E-01  3.00E+00  0.00  1.00 4
 223  2.73E+00  3.25E+01  1.15E+01  3.59E+00  2.79E-01  0.00  1.00 4
 224  7.20E+00  5.68E+01  2.15E+01  5.90E+00  1.70E-01  0.00  1.00 4
 225  0.00E+00  1.57E+01  5.20E+00  2.22E+00  4.50E-01  0.00  1.00 4
 226  2.80E+00  3.74E+01  8.39E+00  2.97E+00  3.37E-01  0.00  1.00 4
 227  0.00E+00  1.26E+01  3.96E+00  1.77E+00  5.66E-01  0.00  1.00 4
 228  0.00E+00  2.43E+00  3.24E-01  3.07E-01  3.26E+00  0.00  1.00 4
 229  7.64E-01  1.72E+01  5.08E+00  1.88E+00  5.32E-01  0.00  1.00 4
 230  1.57E+00  1.96E+01  6.96E+00  2.08E+00  4.80E-01  0.00  1.00 4
 231  0.00E+00  8.71E+00  2.23E+00  1.30E+00  7.68E-01  0.00  1.00 4
 232  2.75E-01  8.28E+00  1.39E+00  7.57E-01  1.32E+00  0.00  1.00 4
 233  0.00E+00  6.79E+00  1.88E+00  1.00E+00  9.99E-01  0.00  1.00 4
 234  0.00E+00  1.52E+00  1.90E-01  1.93E-01  5.19E+00  0.00  1.00 4
 235  4.88E-01  1.56E+01  3.98E+00  1.66E+00  6.03E-01  0.00  1.00 4
 236  3.06E+00  1.78E+01  6.91E+00  1.74E+00  5.75E-01  0.00  1.00 4
 237  0.00E+00  9.01E+00  2.34E+00  1.36E+00  7.35E-01  0.00  1.00 4
 238  1.45E+00  8.20E+00  2.22E+00  4.46E-01  2.24E+00  0.00  1.00 4
 239  0.00E+00  4.73E+00  1.11E+00  6.63E-01  1.51E+00  0.00  1.00 4
 240  0.00E+00  1.15E+00  9.62E-02  1.14E-01  8.78E+00  0.00  1.00 4
 241  1.77E-02  3.56E+00  5.23E-01  3.27E-01  3.05E+00  0.00  1.00 4
 242  2.84E-01  4.04E+00  1.50E+00  6.33E-01  1.58E+00  0.00  1.00 4
 243  0.00E+00  9.45E-01  7.10E-02  8.73E-02  1.15E+01  0.00  1.00 4
 244  2.36E-02  5.79E-01  9.07E-02  2.63E-02  3.80E+01  0.00  1.00 4
 245  0.00E+00  1.04E+00  1.17E-01  1.17E-01  8.53E+00  0.00  1.00 4
 246  0.00E+00  9.90E-02  2.25E-03  5.63E-03  1.78E+02  0.00  1.00 4
 247  9.17E-03  2.65E+00  3.40E-01  2.45E-01  4.08E+00  0.00  1.00 4
 248  2.64E-01  3.10E+00  1.05E+00  3.38E-01  2.96E+00  0.00  1.00 4
 249  0.00E+00  1.06E+00  1.09E-01  1.24E-01  8.10E+00  0.00  1.00 4
 250  3.18E-01  1.24E+00  7.37E-01  9.90E-02  1.01E+01  0.00  1.00 4
 251  0.00E+00  4.92E-01  4.88E-02  5.06E-02  1.98E+01  0.00  1.00 4
 252  0.00E+00  5.76E-02  9.48E-04  2.46E-03  4.06E+02  0.00  1.00 4
 253  7.18E-06  1.28E+00  1.07E-01  1.53E-01  6.52E+00  0.00  1.00 4
 254  1.98E-01  2.34E+00  8.56E-01  2.18E-01  4.59E+00  0.00  1.00 4
 255  0.00E+00  6.70E-03  8.64E-05  3.37E-04  2.97E+03  0.00  1.00 4
 256  2.93E-05  7.39E-03  7.84E-04  4.53E-04  2.21E+03  0.00  1.00 4
 257  0.00E+00  8.49E-03  1.69E-04  5.18E-04  1.93E+03  0.00  1.00 4
 258  3.34E-06  6.79E-01  3.74E-02  5.89E-02  1.70E+01  0.00  1.00 4
 259  9.51E-04  1.09E+00  4.16E-01  1.01E-01  9.91E+00  0.00  1.00 4
 260  0.00E+00  1.29E-02  1.91E-04  7.10E-04  1.41E+03  0.00  1.00 4
 261  3.80E-04  6.27E-02  9.89E-03  5.17E-03  1.94E+02  0.00  1.00 4
 262  0.00E+00  3.70E-03  6.29E-05  2.01E-04  4.98E+03  0.00  1.00 4
-------------------------------------------------------------------------------
*******************************************************************************

*** SETUP: SYMMETRY FUNCTION STATISTICS ***************************************

Equal symmetry function statistics for all elements.
Collect min/max/mean/sigma                        : 0
Collect extrapolation warnings                    : 1
Write extrapolation warnings immediately to stderr: 0
Halt on any extrapolation warning                 : 0
*******************************************************************************

*** SETUP: NEURAL NETWORK WEIGHTS *********************************************

Short  NN weight file name format: ../lammps/nnp/weights.%03d.data
Setting short  NN weights for element  H from file: ../lammps/nnp/weights.001.data
Setting short  NN weights for element  C from file: ../lammps/nnp/weights.006.data
Setting short  NN weights for element  O from file: ../lammps/nnp/weights.008.data
*******************************************************************************

*** SETUP: LAMMPS INTERFACE ***************************************************

Individual extrapolation warnings will not be shown.
Extrapolation warning summary will be shown every 10 timesteps.
The simulation will be stopped when 100 extrapolation warnings are exceeded.
Extrapolation warnings are accumulated over all time steps.
-------------------------------------------------------------------------------
CAUTION: If the LAMMPS unit system differs from the one used
         during NN training, appropriate conversion factors
         must be provided (see keywords cflength and cfenergy).

Length unit conversion factor:   1.8897261258369282E+00
Energy unit conversion factor:   3.6749322474956637E-02

Checking consistency of cutoff radii (in LAMMPS units):
LAMMPS Cutoff (via pair_coeff)  :   6.351E+00
Maximum symmetry function cutoff:   6.350E+00
Cutoff radii are consistent.
-------------------------------------------------------------------------------
Element mapping string from LAMMPS to n2p2: "1:C,2:H,3:O"

CAUTION: Please ensure that this mapping between LAMMPS
         atom types and NNP elements is consistent:

---------------------------
LAMMPS type  |  NNP element
---------------------------
          1 <->  C (  6)
          2 <->  H (  1)
          3 <->  O (  8)
---------------------------

NNP setup for LAMMPS completed.
*******************************************************************************
Neighbor list info ...
  update every 1 steps, delay 10 steps, check yes
  max neighbors/atom: 2000, page size: 100000
  master list distance cutoff = 8.351
  ghost atom cutoff = 8.351
  binsize = 4.1755, bins = 5 5 5
  1 neighbor lists, perpetual/occasional/extra = 1 0 0
  (1) pair nnp, perpetual
      attributes: full, newton on
      pair build: full/bin/atomonly
      stencil: full/bin/3d
      bin: standard
Setting up Verlet run ...
  Unit style    : metal
  Current step  : 0
  Time step     : 0.0005
### NNP EW SUMMARY ### TS:          0 EW          0 EWPERSTEP  0.000E+00
Per MPI rank memory allocation (min/avg/max) = 5.116 | 5.118 | 5.121 Mbytes
Step Temp E_pair E_mol TotEng Press 
       0          340   -53039.563            0   -53017.106    20841.267 
       1    340.93081   -53039.614            0   -53017.095    20162.157 
       2    349.93742   -53040.226            0   -53017.112    18240.409 
       3    361.68851   -53041.004            0   -53017.113    16399.235 
       4    370.28718    -53041.56            0   -53017.102    12505.833 
       5    375.23226   -53041.911            0   -53017.126    10269.365 
       6    377.99932   -53042.096            0   -53017.129    8381.8338 
       7    379.51131    -53042.17            0   -53017.103    7229.6402 
       8    381.87705   -53042.349            0   -53017.125    6409.7982 
       9    385.47609   -53042.565            0   -53017.103    5791.4776 
### NNP EW SUMMARY ### TS:         10 EW          0 EWPERSTEP  0.000E+00
      10    390.43213   -53042.893            0   -53017.104    5823.0466 
      11    396.16137   -53043.298            0   -53017.131    7044.7876 
      12     400.9908   -53043.598            0   -53017.112    8620.6258 
      13    404.30654   -53043.823            0   -53017.117    13563.325 
      14    405.76379   -53043.911            0    -53017.11     13379.66 
      15    406.54133   -53043.984            0   -53017.131    12844.018 
      16    407.78983   -53044.063            0   -53017.127    13369.165 
      17    409.11783   -53044.131            0   -53017.108    16533.564 
      18    408.54992   -53044.105            0   -53017.119     17141.07 
      19    408.04244   -53044.046            0   -53017.094    18321.154 
### NNP EW SUMMARY ### TS:         20 EW          0 EWPERSTEP  0.000E+00
      20    410.08422   -53044.206            0   -53017.119    19026.404 
      21    410.88479   -53044.246            0   -53017.106    19894.876 
      22    408.12061   -53044.068            0   -53017.111    21426.106 
      23    404.32241   -53043.813            0   -53017.107    21708.175 
      24     400.8985   -53043.581            0     -53017.1    20093.144 
      25    398.50591   -53043.423            0   -53017.101    21249.879 
      26    397.59872   -53043.375            0   -53017.113    19885.776 
      27    399.20316   -53043.434            0   -53017.066    16628.218 
      28    403.83563   -53043.762            0   -53017.088    13925.687 
      29     409.0607   -53044.112            0   -53017.093    14102.941 
### NNP EW SUMMARY ### TS:         30 EW          5 EWPERSTEP  5.000E-01
      30    413.20968   -53044.379            0   -53017.086    15482.848 
      31    415.18594   -53044.505            0   -53017.082    15519.659 
      32    414.69367   -53044.487            0   -53017.096    12802.415 
      33    413.52887   -53044.405            0   -53017.091    12788.371 
      34    414.62079    -53044.45            0   -53017.063     13188.82 
      35    420.78723   -53044.871            0   -53017.077    12172.089 
      36     428.9757   -53045.439            0   -53017.104    7634.7899 
      37    436.89474   -53045.946            0   -53017.089    8444.4969 
      38    444.57525   -53046.452            0   -53017.087    9385.7037 
      39    451.47168   -53046.909            0   -53017.088    12331.872 
### NNP EW SUMMARY ### TS:         40 EW          0 EWPERSTEP  0.000E+00
      40    458.01051   -53047.336            0   -53017.083    11622.467 
      41    464.86169   -53047.751            0   -53017.046     12014.08 
      42    468.39376       -53048            0   -53017.062     12208.28 
      43    469.70438   -53048.046            0   -53017.021    15062.992 
      44    473.59093   -53048.117            0   -53016.836    24292.412 
      45    478.41628   -53048.224            0   -53016.624    9827.2933 
      46    473.77748   -53047.897            0   -53016.603    11865.818 
      47    471.76397    -53047.78            0   -53016.619    14681.145 
      48    472.41272   -53047.803            0   -53016.599    14029.037 
      49    475.32665   -53048.021            0   -53016.624      10921.5 
### NNP EW SUMMARY ### TS:         50 EW          0 EWPERSTEP  0.000E+00
      50    478.44107   -53048.215            0   -53016.613    12427.628 
      51     480.4979    -53048.34            0   -53016.602    11345.428 
      52    481.56356   -53048.418            0    -53016.61    12878.193 
      53    480.43765   -53048.345            0   -53016.612    10502.594 
      54     478.6399   -53048.222            0   -53016.607    10074.712 
      55    478.33519   -53048.227            0   -53016.632    11736.273 
      56    479.59668   -53048.292            0   -53016.614    10950.638 
      57    482.73573     -53048.5            0   -53016.615      7290.28 
      58    487.61731   -53048.832            0   -53016.624    7292.4505 
      59    491.22789   -53049.035            0   -53016.588    1916.1658 
### NNP EW SUMMARY ### TS:         60 EW          0 EWPERSTEP  0.000E+00
      60    495.04985   -53049.278            0   -53016.579    2098.4725 
      61    499.92555   -53049.589            0   -53016.568    142.23423 
      62    506.41244    -53050.05            0     -53016.6    2298.1188 
      63    510.29708   -53050.275            0   -53016.569    8403.3651 
      64    508.81844   -53050.167            0   -53016.558    9294.7735 
      65    504.85315   -53049.898            0   -53016.552    7618.0802 
      66    499.24255   -53049.514            0   -53016.538    5491.9127 
      67    495.96122    -53049.28            0   -53016.521    7067.0739 
      68    496.43922   -53049.326            0   -53016.535    6742.1383 
      69     499.8339    -53049.56            0   -53016.545    8289.7726 
### NNP EW SUMMARY ### TS:         70 EW          9 EWPERSTEP  9.000E-01
      70    505.64793   -53049.937            0   -53016.538    7420.2755 
      71    510.94385   -53050.299            0    -53016.55    7069.3498 
      72    514.40964   -53050.517            0    -53016.54    5705.1918 
      73    516.54884   -53050.637            0   -53016.518    6681.7295 
      74    519.46578   -53050.845            0   -53016.533    4221.6912 
      75    523.97537   -53051.128            0   -53016.518    4460.2337 
      76    527.57594   -53051.428            0   -53016.581    4256.4936 
      77    526.14575   -53051.335            0   -53016.582    4131.1961 
      78    520.00983    -53050.91            0   -53016.562    1818.5414 
      79    513.76615   -53050.521            0   -53016.586   -1443.3514 
### NNP EW SUMMARY ### TS:         80 EW         10 EWPERSTEP  1.000E+00
      80    509.14925   -53050.239            0   -53016.609   -1589.4241 
      81    504.37567   -53049.944            0   -53016.629   -1520.8021 
      82    502.29323   -53049.794            0   -53016.616   -318.63631 
      83    502.76001   -53049.804            0   -53016.595   -1144.0278 
      84    504.03626   -53049.874            0   -53016.581   -2178.0462 
      85    507.78364   -53050.087            0   -53016.547   -1057.0127 
      86    511.29002   -53050.177            0   -53016.406    369.09751 
      87    512.65767   -53050.218            0   -53016.356    1520.1955 
      88    513.54336   -53050.296            0   -53016.375    4244.6171 
      89    512.92151   -53050.223            0   -53016.343    4851.2705 
### NNP EW SUMMARY ### TS:         90 EW         10 EWPERSTEP  1.000E+00
      90    508.72321   -53049.839            0   -53016.237   -2825.9916 
      91    509.58425   -53050.055            0   -53016.396    8667.8074 
      92    507.57916    -53049.93            0   -53016.403    6142.7292 
      93    507.52486    -53049.92            0   -53016.397    7387.8218 
      94     508.7874       -53050            0   -53016.393    6133.2922 
      95    512.18881   -53050.254            0   -53016.423    3759.8054 
      96    518.06078   -53050.639            0    -53016.42    6105.5434 
      97    520.53942   -53050.764            0   -53016.381    12811.723 
      98    523.85285   -53050.992            0   -53016.391    10426.028 
      99    527.48553   -53051.234            0   -53016.392    5689.0101 
### NNP EW SUMMARY ### TS:        100 EW          3 EWPERSTEP  3.000E-01
     100    525.23805   -53051.046            0   -53016.353    7419.4435 
     101    519.75453   -53050.686            0   -53016.355    7651.7484 
     102    513.79842   -53050.273            0   -53016.335    6201.7147 
     103    511.39581   -53050.043            0   -53016.264     8376.492 
     104    511.88176   -53050.137            0   -53016.326    7013.8716 
     105    513.63552   -53050.255            0   -53016.328    4557.3325 
     106    514.76966   -53050.415            0   -53016.414    2389.8781 
     107    516.38171   -53050.428            0    -53016.32    2291.8814 
     108    519.49799   -53050.688            0   -53016.374    804.23389 
     109    521.07803   -53050.795            0   -53016.377    2053.5749 
### NNP EW SUMMARY ### TS:        110 EW          2 EWPERSTEP  2.000E-01
     110    520.17945   -53050.729            0    -53016.37    2553.0072 
     111    517.38555   -53050.575            0   -53016.401    6767.6512 
     112    513.04811   -53050.255            0   -53016.368    10564.244 
     113    509.54005   -53050.047            0   -53016.391    6151.1045 
     114    508.25608   -53049.996            0   -53016.425    2606.6778 
     115     512.4148    -53050.23            0   -53016.384    1976.2071 
     116    520.06479   -53050.823            0   -53016.471    5457.4157 
     117    522.17202   -53050.924            0   -53016.434    8354.3819 
     118    520.40211   -53050.778            0   -53016.404    10164.277 
     119    516.91977   -53050.532            0   -53016.389    11386.275 
### NNP EW SUMMARY ### TS:        120 EW          0 EWPERSTEP  0.000E+00
     120    513.75849   -53050.312            0   -53016.377    12941.519 
     121    512.24839   -53050.264            0   -53016.429    10243.435 
     122    509.64908   -53050.008            0   -53016.345    4006.4841 
     123    510.11345    -53050.05            0   -53016.356    1957.5497 
     124    513.30976   -53050.193            0   -53016.287     5925.215 
     125    514.05326   -53050.206            0   -53016.252    6999.7756 
     126    512.34738   -53050.132            0    -53016.29    8258.2032 
     127    508.27104   -53049.692            0    -53016.12     12158.35 
     128    508.13478   -53049.812            0   -53016.249    7658.7213 
     129    507.40567   -53049.719            0   -53016.204    6243.5294 
### NNP EW SUMMARY ### TS:        130 EW         11 EWPERSTEP  1.100E+00
     130    508.44933   -53049.773            0   -53016.189    4576.1607 
     131    511.37455   -53049.978            0   -53016.201    4431.4285 
     132    514.46437   -53050.174            0   -53016.192    7399.2625 
     133    517.58836   -53050.352            0   -53016.164    10002.161 
     134     522.2043   -53050.678            0   -53016.186    11083.803 
     135    526.38697   -53050.919            0    -53016.15     12884.47 
     136    527.83446   -53050.992            0   -53016.128    11213.779 
     137     528.2443   -53051.018            0   -53016.126    10956.457 
     138    528.27455    -53051.03            0   -53016.137    10002.388 
     139    528.02038   -53051.005            0   -53016.128     9034.722 
### NNP EW SUMMARY ### TS:        140 EW          0 EWPERSTEP  0.000E+00
     140     527.2753   -53050.903            0   -53016.075    7828.4885 
     141    527.58028   -53050.927            0   -53016.079     9141.198 
     142    529.92749   -53051.051            0   -53016.048     10322.57 
     143    533.55796   -53051.278            0   -53016.035    7043.2455 
     144    538.91248    -53051.59            0   -53015.994    8719.4527 
     145    544.05738   -53051.885            0   -53015.949    9117.9082 
     146    545.82976   -53052.007            0   -53015.954     6756.229 
     147    543.97117    -53051.91            0   -53015.979    7001.3141 
     148    541.28067   -53051.608            0   -53015.855    7000.4027 
     149    540.88641   -53051.631            0   -53015.904    6195.7411 
### NNP EW SUMMARY ### TS:        150 EW         17 EWPERSTEP  1.700E+00
     150    541.14206   -53051.631            0   -53015.888    5227.3373 
     151     539.4078   -53051.535            0   -53015.906    5205.7603 
     152    536.50958   -53051.345            0   -53015.907     5664.747 
     153    533.59007   -53051.154            0   -53015.909    5058.3036 
     154    530.18125   -53051.002            0   -53015.982    5807.1223 
     155    526.91826   -53050.792            0   -53015.988    6248.2363 
     156    524.67131   -53050.615            0   -53015.959    9210.5014 
ERROR on proc 16: Too many extrapolation warnings (src/USER-NNP/pair_nnp.cpp:409)
