
     Program PWSCF v.6.6 starts on  6Oct2021 at 10:41:32 

     This program is part of the open-source Quantum ESPRESSO suite
     for quantum simulation of materials; please cite
         "P. Giannozzi et al., J. Phys.:Condens. Matter 21 395502 (2009);
         "P. Giannozzi et al., J. Phys.:Condens. Matter 29 465901 (2017);
          URL http://www.quantum-espresso.org", 
     in publications or presentations arising from this work. More details at
     http://www.quantum-espresso.org/quote

     Parallel version (MPI), running on   128 processors

     MPI processes distributed on     2 nodes
     R & G space division:  proc/nbgrp/npool/nimage =     128
     Fft bands division:     nmany     =       1
     Reading input from UiO-66Zr.in

     Current dimensions of program PWSCF are:
     Max number of different atomic species (ntypx) = 10
     Max number of k-points (npk) =  40000
     Max angular momentum in pseudopotentials (lmaxx) =  3
     file Zr.pbe-spn-rrkjus_psl.1.0.0.UPF: wavefunction(s)  4S renormalized

     IMPORTANT: XC functional enforced from input :
     Exchange-correlation= PBE
                           (   1   4   3   4   0   0   0)
     Any further DFT definition will be discarded
     Please, verify this is what you really want


     Subspace diagonalization in iterative solution of the eigenvalue problem:
     one sub-group per band group will be used
     scalapack distributed-memory algorithm (size of sub-group: 11* 11 procs)


     Parallelization info
     --------------------
     sticks:   dense  smooth     PW     G-vecs:    dense   smooth      PW
     Min         386     232     58                64712    30082    3756
     Max         387     233     59                64721    30087    3764
     Sum       49493   29717   7425              8283703  3850727  481353



     bravais-lattice index     =            0
     lattice parameter (alat)  =      39.4316  a.u.
     unit-cell volume          =   61310.2296 (a.u.)^3
     number of atoms/cell      =          456
     number of atomic types    =            4
     number of electrons       =      1936.00
     number of Kohn-Sham states=          968
     kinetic-energy cutoff     =      60.0000  Ry
     charge density cutoff     =     400.0000  Ry
     convergence threshold     =      1.0E-08
     mixing beta               =       0.7000
     number of iterations used =            8  plain     mixing
     Exchange-correlation= PBE
                           (   1   4   3   4   0   0   0)

     celldm(1)=  39.431592  celldm(2)=   0.000000  celldm(3)=   0.000000
     celldm(4)=   0.000000  celldm(5)=   0.000000  celldm(6)=   0.000000

     crystal axes: (cart. coord. in units of alat)
               a(1) = (   1.000000   0.000000   0.000000 )  
               a(2) = (   0.000000   1.000000   0.000000 )  
               a(3) = (   0.000000   0.000000   1.000000 )  

     reciprocal axes: (cart. coord. in units 2 pi/alat)
               b(1) = (  1.000000  0.000000  0.000000 )  
               b(2) = (  0.000000  1.000000  0.000000 )  
               b(3) = (  0.000000  0.000000  1.000000 )  


     PseudoPot. # 1 for H  read from file:
     ../pseudos/H.pbe-rrkjus_psl.1.0.0.UPF
     MD5 check sum: 3f4114867bd07edc7f1424d066fc1888
     Pseudo is Ultrasoft, Zval =  1.0
     Generated using "atomic" code by A. Dal Corso v.6.3MaX
     Using radial grid of  929 points,  2 beta functions with: 
                l(1) =   0
                l(2) =   0
     Q(r) pseudized with 0 coefficients 


     PseudoPot. # 2 for C  read from file:
     ../pseudos/C.pbe-n-rrkjus_psl.1.0.0.UPF
     MD5 check sum: 1fdd950c42eb37d8afe3dd2f8d12311e
     Pseudo is Ultrasoft + core correction, Zval =  4.0
     Generated using "atomic" code by A. Dal Corso v.6.3MaX
     Using radial grid of 1073 points,  4 beta functions with: 
                l(1) =   0
                l(2) =   0
                l(3) =   1
                l(4) =   1
     Q(r) pseudized with 0 coefficients 


     PseudoPot. # 3 for O  read from file:
     ../pseudos/O.pbe-n-rrkjus_psl.1.0.0.UPF
     MD5 check sum: 91400c9766925bcf19f520983a725ff0
     Pseudo is Ultrasoft + core correction, Zval =  6.0
     Generated using "atomic" code by A. Dal Corso v.6.3MaX
     Using radial grid of 1095 points,  4 beta functions with: 
                l(1) =   0
                l(2) =   0
                l(3) =   1
                l(4) =   1
     Q(r) pseudized with 0 coefficients 


     PseudoPot. # 4 for Zr read from file:
     ../pseudos/Zr.pbe-spn-rrkjus_psl.1.0.0.UPF
     MD5 check sum: 3d17ee99aa1707c2ccb6b09ed65e51a1
     Pseudo is Ultrasoft + core correction, Zval = 12.0
     Generated using "atomic" code by A. Dal Corso v.6.2.2
     Using radial grid of 1225 points,  6 beta functions with: 
                l(1) =   0
                l(2) =   0
                l(3) =   1
                l(4) =   1
                l(5) =   2
                l(6) =   2
     Q(r) pseudized with 0 coefficients 


     atomic species   valence    mass     pseudopotential
        H              1.00     1.00784     H ( 1.00)
        C              4.00    12.01070     C ( 1.00)
        O              6.00    15.99900     O ( 1.00)
        Zr            12.00    91.22400     Zr( 1.00)

     No symmetry found


                                    s                        frac. trans.

      isym =  1     identity                                     

 cryst.   s( 1) = (     1          0          0      )
                  (     0          1          0      )
                  (     0          0          1      )

 cart.    s( 1) = (  1.0000000  0.0000000  0.0000000 )
                  (  0.0000000  1.0000000  0.0000000 )
                  (  0.0000000  0.0000000  1.0000000 )


   Cartesian axes

     site n.     atom                  positions (alat units)
         1           Zr  tau(   1) = (   0.1168900   0.9928000   0.0043924  )
         2           Zr  tau(   2) = (   0.6154210   0.5095650   0.0067214  )
         3           Zr  tau(   3) = (   0.6160050   0.0052029   0.4977320  )
         4           Zr  tau(   4) = (   0.1189190   0.4925910   0.4937760  )
         5           Zr  tau(   5) = (   0.8815590   0.0076692   0.9983420  )
         6           Zr  tau(   6) = (   0.3835640   0.4946340   0.9975480  )
         7           Zr  tau(   7) = (   0.3811570   0.9981680   0.5036210  )
         8           Zr  tau(   8) = (   0.8822090   0.4993510   0.5006290  )
         9           Zr  tau(   9) = (   0.0077414   0.1177260   0.9992330  )
        10           Zr  tau(  10) = (   0.4944520   0.6224150   0.0039160  )
        11           Zr  tau(  11) = (   0.4932070   0.1185310   0.4963800  )
        12           Zr  tau(  12) = (   0.0044799   0.6142030   0.4989630  )
        13           Zr  tau(  13) = (   0.5043960   0.3832190   0.9984010  )
        14           Zr  tau(  14) = (   0.9904720   0.8816120   1.0024800  )
        15           Zr  tau(  15) = (   0.9968070   0.3770290   0.4977790  )
        16           Zr  tau(  16) = (   0.5026110   0.8836990   0.5057190  )
        17           Zr  tau(  17) = (   0.9947620   0.9998310   0.1200550  )
        18           Zr  tau(  18) = (   0.4930710   0.5010000   0.1188780  )
        19           Zr  tau(  19) = (   0.5044640   0.0073176   0.6193970  )
        20           Zr  tau(  20) = (   0.0080162   0.4988570   0.6151770  )
        21           Zr  tau(  21) = (   0.4946630   1.0001500   0.3811200  )
        22           Zr  tau(  22) = (   0.9953610   0.4978400   0.3763070  )
        23           Zr  tau(  23) = (   0.0042169   0.9966960   0.8820920  )
        24           Zr  tau(  24) = (   0.5065750   0.5060380   0.8823590  )
        25           C   tau(  25) = (   0.7528580   0.2018190   0.4705190  )
        26           C   tau(  26) = (   0.2724020   0.6795930   0.4889260  )
        27           C   tau(  27) = (   0.2746520   0.1836580   0.9560760  )
        28           C   tau(  28) = (   0.7545310   0.6961360   0.9751100  )
        29           C   tau(  29) = (   0.7251720   0.3235460   0.4760900  )
        30           C   tau(  30) = (   0.2305670   0.8041800   0.4904110  )
        31           C   tau(  31) = (   0.2462740   0.3052530   0.9706130  )
        32           C   tau(  32) = (   0.7261620   0.8310350   0.9747100  )
        33           C   tau(  33) = (   0.7505600   0.2006110   0.0146245  )
        34           C   tau(  34) = (   0.2217640   0.6749540   0.0102508  )
        35           C   tau(  35) = (   0.2236290   0.1744520   0.5299240  )
        36           C   tau(  36) = (   0.7382480   0.6925850   0.5138590  )
        37           C   tau(  37) = (   0.7740970   0.3309010   0.0227858  )
        38           C   tau(  38) = (   0.2536190   0.7988860   0.0185867  )
        39           C   tau(  39) = (   0.2578360   0.3018010   0.5309070  )
        40           C   tau(  40) = (   0.7701120   0.8160260   0.5439280  )
        41           C   tau(  41) = (   0.9941940   0.2682940   0.1846740  )
        42           C   tau(  42) = (   0.4652840   0.7604500   0.1978550  )
        43           C   tau(  43) = (   0.4833500   0.2765530   0.6804170  )
        44           C   tau(  44) = (   0.9810510   0.7641600   0.6871990  )
        45           C   tau(  45) = (   0.9657390   0.2308760   0.3120780  )
        46           C   tau(  46) = (   0.4860440   0.7264420   0.3211670  )
        47           C   tau(  47) = (   0.5193800   0.2425220   0.8012510  )
        48           C   tau(  48) = (   0.9824480   0.7294920   0.8101530  )
        49           C   tau(  49) = (   0.5156060   0.2331940   0.1873060  )
        50           C   tau(  50) = (   0.0258365   0.7349420   0.1902070  )
        51           C   tau(  51) = (   0.0145192   0.2311190   0.6858280  )
        52           C   tau(  52) = (   0.5129370   0.7410050   0.6897440  )
        53           C   tau(  53) = (   0.5128710   0.2692020   0.3089020  )
        54           C   tau(  54) = (   0.0229484   0.7641250   0.3155160  )
        55           C   tau(  55) = (   0.0180069   0.2585340   0.8110770  )
        56           C   tau(  56) = (   0.5179970   0.7764160   0.8229140  )
        57           C   tau(  57) = (   0.6687160   0.4633680   0.2729700  )
        58           C   tau(  58) = (   0.1839380   0.9706170   0.2712550  )
        59           C   tau(  59) = (   0.1994540   0.4915780   0.7573730  )
        60           C   tau(  60) = (   0.6923600   0.9834520   0.7606770  )
        61           C   tau(  61) = (   0.7974440   0.4675150   0.2390330  )
        62           C   tau(  62) = (   0.3040830   0.9516030   0.2405890  )
        63           C   tau(  63) = (   0.3258500   0.4791160   0.7287370  )
        64           C   tau(  64) = (   0.8168130   0.9930730   0.7236260  )
        65           C   tau(  65) = (   0.6808110   0.0217525   0.2284370  )
        66           C   tau(  66) = (   0.1759160   0.5089700   0.2190750  )
        67           C   tau(  67) = (   0.1924890   0.0227342   0.7357120  )
        68           C   tau(  68) = (   0.6975860   0.5254000   0.7439060  )
        69           C   tau(  69) = (   0.8054560   0.0328600   0.2640570  )
        70           C   tau(  70) = (   0.2990680   0.4993620   0.2541160  )
        71           C   tau(  71) = (   0.3219310   0.0208218   0.7729200  )
        72           C   tau(  72) = (   0.8187040   0.5083790   0.7707040  )
        73           C   tau(  73) = (   0.6705270   0.2821770   0.4700410  )
        74           C   tau(  74) = (   0.1844130   0.7562940   0.4867060  )
        75           C   tau(  75) = (   0.1925830   0.2584780   0.9818730  )
        76           C   tau(  76) = (   0.6755330   0.7854750   0.9793530  )
        77           C   tau(  77) = (   0.8019720   0.2427360   0.4769840  )
        78           C   tau(  78) = (   0.3162390   0.7293950   0.4911610  )
        79           C   tau(  79) = (   0.3232440   0.2308750   0.9480890  )
        80           C   tau(  80) = (   0.8005500   0.7453210   0.9668690  )
        81           C   tau(  81) = (   0.7005680   0.2461870   0.0088499  )
        82           C   tau(  82) = (   0.1744790   0.7231350   0.0113924  )
        83           C   tau(  83) = (   0.1799470   0.2267400   0.5260470  )
        84           C   tau(  84) = (   0.6911350   0.7374370   0.5141910  )
        85           C   tau(  85) = (   0.8239390   0.2821350   0.0231844  )
        86           C   tau(  86) = (   0.3010050   0.7561310   0.0103640  )
        87           C   tau(  87) = (   0.3095240   0.2573800   0.5365780  )
        88           C   tau(  88) = (   0.8171500   0.7689940   0.5465040  )
        89           C   tau(  89) = (   0.7545630   0.4745410   0.1889520  )
        90           C   tau(  90) = (   0.2633960   0.9650460   0.1899260  )
        91           C   tau(  91) = (   0.2778840   0.4794490   0.6841650  )
        92           C   tau(  92) = (   0.7701140   0.9943370   0.6742150  )
        93           C   tau(  93) = (   0.7188370   0.4635980   0.3190000  )
        94           C   tau(  94) = (   0.2287310   0.9636980   0.3207440  )
        95           C   tau(  95) = (   0.2450040   0.4975860   0.8064860  )
        96           C   tau(  96) = (   0.7399070   0.9775260   0.8057490  )
        97           C   tau(  97) = (   0.7289030   0.0220508   0.1831780  )
        98           C   tau(  98) = (   0.2239600   0.5112050   0.1727560  )
        99           C   tau(  99) = (   0.2397650   0.0217169   0.6901080  )
       100           C   tau( 100) = (   0.7412600   0.5216430   0.6915140  )
       101           C   tau( 101) = (   0.7571620   0.0317789   0.3091620  )
       102           C   tau( 102) = (   0.2588910   0.5033630   0.3063540  )
       103           C   tau( 103) = (   0.2705650   0.0180756   0.8170400  )
       104           C   tau( 104) = (   0.7749750   0.5088440   0.8204570  )
       105           C   tau( 105) = (   0.9766330   0.1887180   0.2620880  )
       106           C   tau( 106) = (   0.4791790   0.6790730   0.2723310  )
       107           C   tau( 107) = (   0.5157030   0.1976440   0.7555580  )
       108           C   tau( 108) = (   0.9870750   0.6782950   0.7648400  )
       109           C   tau( 109) = (   0.9851830   0.3152390   0.2311600  )
       110           C   tau( 110) = (   0.4675300   0.8081990   0.2426870  )
       111           C   tau( 111) = (   0.4825370   0.3178450   0.7334240  )
       112           C   tau( 112) = (   0.9800630   0.8131850   0.7349810  )
       113           C   tau( 113) = (   0.5168460   0.1837670   0.2298190  )
       114           C   tau( 114) = (   0.0199150   0.6841010   0.2354220  )
       115           C   tau( 115) = (   0.0149119   0.1850240   0.7330100  )
       116           C   tau( 116) = (   0.5092600   0.6964770   0.7394440  )
       117           C   tau( 117) = (   0.5122470   0.3192750   0.2663120  )
       118           C   tau( 118) = (   0.0243299   0.8160870   0.2716050  )
       119           C   tau( 119) = (   0.0133931   0.3090360   0.7659780  )
       120           C   tau( 120) = (   0.5136700   0.8212890   0.7741920  )
       121           C   tau( 121) = (   0.6868420   0.2153910   0.4695570  )
       122           C   tau( 122) = (   0.2053510   0.6917860   0.4889030  )
       123           C   tau( 123) = (   0.2082420   0.1938670   0.9744050  )
       124           C   tau( 124) = (   0.6908620   0.7153890   0.9785780  )
       125           C   tau( 125) = (   0.7899340   0.3077160   0.4784090  )
       126           C   tau( 126) = (   0.3001460   0.7963330   0.4919910  )
       127           C   tau( 127) = (   0.3111920   0.2971690   0.9587060  )
       128           C   tau( 128) = (   0.7882660   0.8116300   0.9709150  )
       129           C   tau( 129) = (   0.8152230   0.2140410   0.0220823  )
       130           C   tau( 130) = (   0.2871190   0.6905060   0.0107200  )
       131           C   tau( 131) = (   0.2885860   0.1924680   0.5304760  )
       132           C   tau( 132) = (   0.8038430   0.7058040   0.5271160  )
       133           C   tau( 133) = (   0.7107840   0.3132080   0.0157471  )
       134           C   tau( 134) = (   0.1871220   0.7891750   0.0203343  )
       135           C   tau( 135) = (   0.1915600   0.2923480   0.5259690  )
       136           C   tau( 136) = (   0.7046620   0.8048080   0.5259910  )
       137           C   tau( 137) = (   0.9889610   0.2030420   0.1986150  )
       138           C   tau( 138) = (   0.4725040   0.6963060   0.2084160  )
       139           C   tau( 139) = (   0.4983340   0.2127730   0.6931100  )
       140           C   tau( 140) = (   0.9842080   0.6989850   0.7006870  )
       141           C   tau( 141) = (   0.9735930   0.2962590   0.2968770  )
       142           C   tau( 142) = (   0.4800130   0.7935410   0.3061160  )
       143           C   tau( 143) = (   0.5026850   0.3078450   0.7948080  )
       144           C   tau( 144) = (   0.9832630   0.7977520   0.8016080  )
       145           C   tau( 145) = (   0.5137950   0.2988100   0.2011070  )
       146           C   tau( 146) = (   0.0259967   0.7995910   0.2059110  )
       147           C   tau( 147) = (   0.0108746   0.2972120   0.7000860  )
       148           C   tau( 148) = (   0.5128650   0.8057200   0.7078730  )
       149           C   tau( 149) = (   0.5142560   0.2029280   0.2925190  )
       150           C   tau( 150) = (   0.0203042   0.7015840   0.3000690  )
       151           C   tau( 151) = (   0.0210649   0.1946940   0.7982140  )
       152           C   tau( 152) = (   0.5141420   0.7091680   0.8041360  )
       153           C   tau( 153) = (   0.6906880   0.4722080   0.2105940  )
       154           C   tau( 154) = (   0.1981700   0.9731460   0.2050520  )
       155           C   tau( 155) = (   0.2118280   0.4840630   0.6916300  )
       156           C   tau( 156) = (   0.7061830   0.9910620   0.6948720  )
       157           C   tau( 157) = (   0.7862280   0.4639480   0.3090590  )
       158           C   tau( 158) = (   0.2949230   0.9574610   0.3066520  )
       159           C   tau( 159) = (   0.3110380   0.4901520   0.7923860  )
       160           C   tau( 160) = (   0.8036970   0.9889690   0.7920970  )
       161           C   tau( 161) = (   0.6924260   0.0271656   0.2920920  )
       162           C   tau( 162) = (   0.1952450   0.5046460   0.2895010  )
       163           C   tau( 163) = (   0.2042360   0.0189103   0.8007010  )
       164           C   tau( 164) = (   0.7092080   0.5169930   0.8086390  )
       165           C   tau( 165) = (   0.7961380   0.0258758   0.1994070  )
       166           C   tau( 166) = (   0.2875110   0.5042250   0.1881700  )
       167           C   tau( 167) = (   0.3041510   0.0216200   0.7104430  )
       168           C   tau( 168) = (   0.8070680   0.5167750   0.7045340  )
       169           C   tau( 169) = (   0.5099420   0.1496320   0.3450430  )
       170           C   tau( 170) = (   0.0142684   0.6495680   0.3502470  )
       171           C   tau( 171) = (   0.0276774   0.1441470   0.8480590  )
       172           C   tau( 172) = (   0.5098340   0.6581560   0.8555780  )
       173           C   tau( 173) = (   0.9783080   0.3473290   0.3483320  )
       174           C   tau( 174) = (   0.4900320   0.8450760   0.3573900  )
       175           C   tau( 175) = (   0.5119670   0.3585030   0.8459760  )
       176           C   tau( 176) = (   0.9839170   0.8469470   0.8534860  )
       177           C   tau( 177) = (   0.9979490   0.1531130   0.1472360  )
       178           C   tau( 178) = (   0.4702140   0.6463560   0.1562160  )
       179           C   tau( 179) = (   0.4943060   0.1618980   0.6439920  )
       180           C   tau( 180) = (   0.9918770   0.6485470   0.6493480  )
       181           C   tau( 181) = (   0.5114700   0.3507150   0.1501500  )
       182           C   tau( 182) = (   0.0208452   0.8505190   0.1541030  )
       183           C   tau( 183) = (   0.0148775   0.3479840   0.6473590  )
       184           C   tau( 184) = (   0.5180150   0.8570820   0.6581120  )
       185           C   tau( 185) = (   0.8449560   0.0238531   0.1485390  )
       186           C   tau( 186) = (   0.3401350   0.5021420   0.1415920  )
       187           C   tau( 187) = (   0.3538900   0.0140248   0.6554760  )
       188           C   tau( 188) = (   0.8586510   0.5140950   0.6526690  )
       189           C   tau( 189) = (   0.8401130   0.4734310   0.3574360  )
       190           C   tau( 190) = (   0.3482180   0.9596850   0.3568520  )
       191           C   tau( 191) = (   0.3592090   0.4980850   0.8445950  )
       192           C   tau( 192) = (   0.8524290   0.9946200   0.8451170  )
       193           C   tau( 193) = (   0.6414650   0.4847930   0.1576060  )
       194           C   tau( 194) = (   0.1480960   0.9843830   0.1539180  )
       195           C   tau( 195) = (   0.1596960   0.4832330   0.6409410  )
       196           C   tau( 196) = (   0.6543990   0.9993510   0.6471510  )
       197           C   tau( 197) = (   0.6436910   0.0138977   0.3450890  )
       198           C   tau( 198) = (   0.1461180   0.5026300   0.3418070  )
       199           C   tau( 199) = (   0.1512090   1.0045900   0.8507180  )
       200           C   tau( 200) = (   0.6585940   0.5207570   0.8599310  )
       201           C   tau( 201) = (   0.6560220   0.3617540   0.0089705  )
       202           C   tau( 202) = (   0.1358120   0.8403770   0.0137673  )
       203           C   tau( 203) = (   0.1425880   0.3403330   0.5110010  )
       204           C   tau( 204) = (   0.6524880   0.8557760   0.5203310  )
       205           C   tau( 205) = (   0.8454210   0.3532210   0.4934260  )
       206           C   tau( 206) = (   0.3528670   0.8469700   0.5043460  )
       207           C   tau( 207) = (   0.3597160   0.3483040   0.9637910  )
       208           C   tau( 208) = (   0.8422990   0.8584120   0.9754900  )
       209           C   tau( 209) = (   0.6413950   0.1579490   0.4749430  )
       210           C   tau( 210) = (   0.1519090   0.6436200   0.4812530  )
       211           C   tau( 211) = (   0.1579040   0.1416430   0.9898200  )
       212           C   tau( 212) = (   0.6433400   0.6591760   0.9946570  )
       213           C   tau( 213) = (   0.8626920   0.1606040   0.0143209  )
       214           C   tau( 214) = (   0.3408970   0.6405830   0.0099764  )
       215           C   tau( 215) = (   0.3448680   0.1465470   0.5232480  )
       216           C   tau( 216) = (   0.8549760   0.6513360   0.5198310  )
       217           H   tau( 217) = (   0.7614820   0.1500290   0.4670460  )
       218           H   tau( 218) = (   0.2875820   0.6315900   0.4953580  )
       219           H   tau( 219) = (   0.2879050   0.1318950   0.9515670  )
       220           H   tau( 220) = (   0.7702700   0.6444860   0.9755110  )
       221           H   tau( 221) = (   0.7167140   0.3753650   0.4684500  )
       222           H   tau( 222) = (   0.2194020   0.8525330   0.4924650  )
       223           H   tau( 223) = (   0.2393880   0.3563530   0.9835030  )
       224           H   tau( 224) = (   0.7102980   0.8833280   0.9690270  )
       225           H   tau( 225) = (   0.7339890   0.1477990   0.0133019  )
       226           H   tau( 226) = (   0.2180110   0.6227340   0.0170917  )
       227           H   tau( 227) = (   0.2117220   0.1205680   0.5282230  )
       228           H   tau( 228) = (   0.7268480   0.6436530   0.5005160  )
       229           H   tau( 229) = (   0.7848740   0.3811130   0.0266767  )
       230           H   tau( 230) = (   0.2659890   0.8503400   0.0177856  )
       231           H   tau( 231) = (   0.2695430   0.3532460   0.5219250  )
       232           H   tau( 232) = (   0.7786940   0.8672730   0.5567080  )
       233           H   tau( 233) = (   0.0008719   0.2748180   0.1320970  )
       234           H   tau( 234) = (   0.4607380   0.7728630   0.1468310  )
       235           H   tau( 235) = (   0.4657340   0.2885000   0.6321360  )
       236           H   tau( 236) = (   0.9850410   0.7805400   0.6390280  )
       237           H   tau( 237) = (   0.9572550   0.2203790   0.3656210  )
       238           H   tau( 238) = (   0.4886590   0.7192830   0.3727090  )
       239           H   tau( 239) = (   0.5372740   0.2274520   0.8480490  )
       240           H   tau( 240) = (   0.9861450   0.7122410   0.8641110  )
       241           H   tau( 241) = (   0.5155870   0.2172310   0.1365800  )
       242           H   tau( 242) = (   0.0226350   0.7215470   0.1382120  )
       243           H   tau( 243) = (   0.0105018   0.2215370   0.6333720  )
       244           H   tau( 244) = (   0.5146090   0.7228020   0.6419400  )
       245           H   tau( 245) = (   0.5098490   0.2837860   0.3611430  )
       246           H   tau( 246) = (   0.0238934   0.7767500   0.3661260  )
       247           H   tau( 247) = (   0.0199619   0.2706640   0.8618430  )
       248           H   tau( 248) = (   0.5173600   0.7881000   0.8738980  )
       249           H   tau( 249) = (   0.6196240   0.4642670   0.2910420  )
       250           H   tau( 250) = (   0.1348050   0.9816370   0.2836010  )
       251           H   tau( 251) = (   0.1478580   0.4863860   0.7758380  )
       252           H   tau( 252) = (   0.6438040   0.9871900   0.7820470  )
       253           H   tau( 253) = (   0.8476530   0.4713350   0.2234440  )
       254           H   tau( 254) = (   0.3541670   0.9370510   0.2324540  )
       255           H   tau( 255) = (   0.3762470   0.4736250   0.7125140  )
       256           H   tau( 256) = (   0.8683710   0.9927160   0.7164420  )
       257           H   tau( 257) = (   0.6336740   0.0213267   0.2079040  )
       258           H   tau( 258) = (   0.1243420   0.5127440   0.2094010  )
       259           H   tau( 259) = (   0.1434120   0.0187241   0.7184100  )
       260           H   tau( 260) = (   0.6459020   0.5269290   0.7296280  )
       261           H   tau( 261) = (   0.8564710   0.0375042   0.2794980  )
       262           H   tau( 262) = (   0.3533160   0.4947470   0.2640160  )
       263           H   tau( 263) = (   0.3740260   0.0151582   0.7843490  )
       264           H   tau( 264) = (   0.8712180   0.5032810   0.7814700  )
       265           H   tau( 265) = (   0.6205490   0.3054460   0.4695230  )
       266           H   tau( 266) = (   0.1326720   0.7686310   0.4800090  )
       267           H   tau( 267) = (   0.1444260   0.2754200   0.9949440  )
       268           H   tau( 268) = (   0.6260630   0.8021120   0.9763400  )
       269           H   tau( 269) = (   0.8551550   0.2356940   0.4773410  )
       270           H   tau( 270) = (   0.3708460   0.7198630   0.4935770  )
       271           H   tau( 271) = (   0.3723590   0.2223200   0.9300670  )
       272           H   tau( 272) = (   0.8494500   0.7295500   0.9583730  )
       273           H   tau( 273) = (   0.6489240   0.2333000   0.0018146  )
       274           H   tau( 274) = (   0.1222900   0.7099630   0.0142791  )
       275           H   tau( 275) = (   0.1294970   0.2170670   0.5288620  )
       276           H   tau( 276) = (   0.6399240   0.7279050   0.5009010  )
       277           H   tau( 277) = (   0.8740700   0.2965270   0.0265458  )
       278           H   tau( 278) = (   0.3527310   0.7691760   0.0058041  )
       279           H   tau( 279) = (   0.3570650   0.2763840   0.5475520  )
       280           H   tau( 280) = (   0.8710450   0.7793160   0.5590770  )
       281           H   tau( 281) = (   0.7679780   0.4789870   0.1367710  )
       282           H   tau( 282) = (   0.2784900   0.9674950   0.1379080  )
       283           H   tau( 283) = (   0.2830260   0.4705210   0.6330340  )
       284           H   tau( 284) = (   0.7809510   0.9995580   0.6216730  )
       285           H   tau( 285) = (   0.7101720   0.4695590   0.3698090  )
       286           H   tau( 286) = (   0.2221200   0.9660950   0.3723480  )
       287           H   tau( 287) = (   0.2227900   0.5088950   0.8529050  )
       288           H   tau( 288) = (   0.7319230   0.9679390   0.8567470  )
       289           H   tau( 289) = (   0.7171890   0.0210287   0.1323450  )
       290           H   tau( 290) = (   0.2157090   0.5167920   0.1201050  )
       291           H   tau( 291) = (   0.2182540   0.0226078   0.6417290  )
       292           H   tau( 292) = (   0.7252930   0.5273520   0.6434690  )
       293           H   tau( 293) = (   0.7692840   0.0277211   0.3591660  )
       294           H   tau( 294) = (   0.2721190   0.5049110   0.3551700  )
       295           H   tau( 295) = (   0.2796260   0.0102452   0.8694900  )
       296           H   tau( 296) = (   0.7872860   0.5088420   0.8717930  )
       297           H   tau( 297) = (   0.9726830   0.1386710   0.2770420  )
       298           H   tau( 298) = (   0.4769870   0.6266950   0.2802390  )
       299           H   tau( 299) = (   0.5307430   0.1487560   0.7616030  )
       300           H   tau( 300) = (   0.9951870   0.6276710   0.7808640  )
       301           H   tau( 301) = (   0.9869950   0.3682010   0.2164220  )
       302           H   tau( 302) = (   0.4593560   0.8578010   0.2312800  )
       303           H   tau( 303) = (   0.4595180   0.3649650   0.7217270  )
       304           H   tau( 304) = (   0.9770030   0.8621970   0.7225360  )
       305           H   tau( 305) = (   0.5162940   0.1350380   0.2101020  )
       306           H   tau( 306) = (   0.0181806   0.6272630   0.2281780  )
       307           H   tau( 307) = (   0.0091434   0.1301210   0.7248520  )
       308           H   tau( 308) = (   0.5051440   0.6454890   0.7302130  )
       309           H   tau( 309) = (   0.5123300   0.3719860   0.2742030  )
       310           H   tau( 310) = (   0.0254949   0.8686010   0.2862750  )
       311           H   tau( 311) = (   0.0087676   0.3580310   0.7835140  )
       312           H   tau( 312) = (   0.5116320   0.8730360   0.7891790  )
       313           H   tau( 313) = (   0.0822927   0.4052550   0.4064580  )
       314           H   tau( 314) = (   0.5830170   0.9141290   0.4107590  )
       315           H   tau( 315) = (   0.5968380   0.4200660   0.9175650  )
       316           H   tau( 316) = (   0.0852794   0.9057020   0.9181960  )
       317           H   tau( 317) = (   0.4013940   0.0805579   0.4135180  )
       318           H   tau( 318) = (   0.9105440   0.5884350   0.4133910  )
       319           H   tau( 319) = (   0.9201750   0.0893094   0.9099800  )
       320           H   tau( 320) = (   0.4116250   0.5865350   0.9136740  )
       321           H   tau( 321) = (   0.4145610   0.4034760   0.0845157  )
       322           H   tau( 322) = (   0.9024830   0.9147710   0.0893824  )
       323           H   tau( 323) = (   0.9119500   0.4102540   0.5891790  )
       324           H   tau( 324) = (   0.4144670   0.9179780   0.5961980  )
       325           H   tau( 325) = (   0.0884898   0.0793620   0.0892256  )
       326           H   tau( 326) = (   0.5826370   0.5925970   0.0929590  )
       327           H   tau( 327) = (   0.5857210   0.0992915   0.5813300  )
       328           H   tau( 328) = (   0.0964653   0.5838940   0.5802640  )
       329           O   tau( 329) = (   0.5074560   0.0913973   0.3269010  )
       330           O   tau( 330) = (   0.0154698   0.5931320   0.3319320  )
       331           O   tau( 331) = (   0.0192759   0.0875932   0.8283910  )
       332           O   tau( 332) = (   0.5113960   0.6027250   0.8361440  )
       333           O   tau( 333) = (   0.9865050   0.4026030   0.3293510  )
       334           O   tau( 334) = (   0.4994790   0.9021860   0.3372390  )
       335           O   tau( 335) = (   0.5092200   0.4150900   0.8266730  )
       336           O   tau( 336) = (   0.9826820   0.9038890   0.8342700  )
       337           O   tau( 337) = (  -0.0042687   0.0964404   0.1664110  )
       338           O   tau( 338) = (   0.4743210   0.5905770   0.1740970  )
       339           O   tau( 339) = (   0.5001090   0.1050700   0.6652260  )
       340           O   tau( 340) = (   0.9928380   0.5899720   0.6687000  )
       341           O   tau( 341) = (   0.5051640   0.4073010   0.1707470  )
       342           O   tau( 342) = (   0.0196479   0.9088280   0.1711950  )
       343           O   tau( 343) = (   0.0185821   0.4059050   0.6654010  )
       344           O   tau( 344) = (   0.5177410   0.9159950   0.6738850  )
       345           O   tau( 345) = (   0.8286150   0.0217383   0.0900284  )
       346           O   tau( 346) = (   0.3239810   0.5014220   0.0849403  )
       347           O   tau( 347) = (   0.3339550   0.0069115   0.6011020  )
       348           O   tau( 348) = (   0.8414710   0.5228020   0.5964670  )
       349           O   tau( 349) = (   0.8230430   0.4791980   0.4151040  )
       350           O   tau( 350) = (   0.3312860   0.9623080   0.4150240  )
       351           O   tau( 351) = (   0.3378970   0.5023890   0.9003800  )
       352           O   tau( 352) = (   0.8329610   1.0013300   0.9015050  )
       353           O   tau( 353) = (   0.6615850   0.4918390   0.1013450  )
       354           O   tau( 354) = (   0.1671090   0.9783110   0.0987738  )
       355           O   tau( 355) = (   0.1761760   0.4842630   0.5827290  )
       356           O   tau( 356) = (   0.6702910   1.0131800   0.5898350  )
       357           O   tau( 357) = (   0.6611720   0.0166021   0.4019330  )
       358           O   tau( 358) = (   0.1670810   0.5002000   0.3997340  )
       359           O   tau( 359) = (   0.1672270   0.9973290   0.9085260  )
       360           O   tau( 360) = (   0.6756040   0.5196530   0.9189840  )
       361           O   tau( 361) = (   0.6018230   0.3396230   0.0030382  )
       362           O   tau( 362) = (   0.0806579   0.8251450   0.0018485  )
       363           O   tau( 363) = (   0.0870249   0.3213520   0.5005480  )
       364           O   tau( 364) = (   0.5971880   0.8370100   0.5094320  )
       365           O   tau( 365) = (   0.9004030   0.3314530   0.4942500  )
       366           O   tau( 366) = (   0.4098980   0.8283090   0.5027530  )
       367           O   tau( 367) = (   0.4160590   0.3308480   0.9657260  )
       368           O   tau( 368) = (   0.8969370   0.8367770   0.9819700  )
       369           O   tau( 369) = (   0.5834540   0.1740500   0.4815770  )
       370           O   tau( 370) = (   0.0960003   0.6640270   0.4815640  )
       371           O   tau( 371) = (   0.1040600   0.1625850   1.0044000  )
       372           O   tau( 372) = (   0.5882530   0.6755470   1.0042000  )
       373           O   tau( 373) = (   0.9203870   0.1767920   0.0169359  )
       374           O   tau( 374) = (   0.3958720   0.6620240   0.0102724  )
       375           O   tau( 375) = (   0.4016720   0.1680970   0.5174160  )
       376           O   tau( 376) = (   0.9127990   0.6674330   0.5192020  )
       377           O   tau( 377) = (   0.5881690   1.0007900   0.3272510  )
       378           O   tau( 378) = (   0.0896910   0.4953190   0.3255210  )
       379           O   tau( 379) = (   0.0952028   0.9970300   0.8296170  )
       380           O   tau( 380) = (   0.6036850   0.5287370   0.8398610  )
       381           O   tau( 381) = (   0.8967220   0.4766960   0.3364470  )
       382           O   tau( 382) = (   0.4045070   0.9625350   0.3369500  )
       383           O   tau( 383) = (   0.4171540   0.4938670   0.8272570  )
       384           O   tau( 384) = (   0.9109240  -0.0084103   0.8302900  )
       385           O   tau( 385) = (   0.5838820   0.4863100   0.1741230  )
       386           O   tau( 386) = (   0.0897809   0.9991770   0.1694740  )
       387           O   tau( 387) = (   0.1034430   0.4808020   0.6628650  )
       388           O   tau( 388) = (   0.5990970   1.0014700   0.6686180  )
       389           O   tau( 389) = (   0.9023900   0.0273935   0.1670700  )
       390           O   tau( 390) = (   0.3965070   0.4988440   0.1659020  )
       391           O   tau( 391) = (   0.4141140   0.0123732   0.6740270  )
       392           O   tau( 392) = (   0.9145340   0.5019180   0.6707910  )
       393           O   tau( 393) = (   0.5229800   0.3337530   0.0907435  )
       394           O   tau( 394) = (   0.0127238   0.8322070   0.0971097  )
       395           O   tau( 395) = (   0.0144583   0.3288100   0.5896330  )
       396           O   tau( 396) = (   0.5188010   0.8337130   0.6000390  )
       397           O   tau( 397) = (   0.9845610   0.3263570   0.4051910  )
       398           O   tau( 398) = (   0.4898760   0.8274980   0.4144690  )
       399           O   tau( 399) = (   0.5171500   0.3394610   0.9023620  )
       400           O   tau( 400) = (   0.9841530   0.8306460   0.9090910  )
       401           O   tau( 401) = (   0.0030006   0.1707110   0.0913917  )
       402           O   tau( 402) = (   0.4658080   0.6638870   0.0992366  )
       403           O   tau( 403) = (   0.4902610   0.1766170   0.5855050  )
       404           O   tau( 404) = (   0.0056101   0.6682250   0.5941460  )
       405           O   tau( 405) = (   0.5016690   0.1694790   0.4020170  )
       406           O   tau( 406) = (   0.0100819   0.6673540   0.4065370  )
       407           O   tau( 407) = (   0.0351676   0.1625510   0.9065530  )
       408           O   tau( 408) = (   0.5019650   0.6752800   0.9121050  )
       409           O   tau( 409) = (   0.8397060   0.1059010   0.0022125  )
       410           O   tau( 410) = (   0.3258640   0.5843170   0.0026270  )
       411           O   tau( 411) = (   0.3292180   0.0888463   0.5247520  )
       412           O   tau( 412) = (   0.8327960   0.5934710   0.5112510  )
       413           O   tau( 413) = (   0.8288610   0.4078110   0.5043090  )
       414           O   tau( 414) = (   0.3351610   0.9029880   0.5137280  )
       415           O   tau( 415) = (   0.3388840   0.4032630   0.9659350  )
       416           O   tau( 416) = (   0.8267670   0.9167970   0.9780000  )
       417           O   tau( 417) = (   0.6617710   0.1010070   0.4770360  )
       418           O   tau( 418) = (   0.1690850   0.5850080   0.4793530  )
       419           O   tau( 419) = (   0.1727690   0.0831229   0.9839110  )
       420           O   tau( 420) = (   0.6630650   0.6065930   0.9934810  )
       421           O   tau( 421) = (   0.6726770   0.4200090   0.0128844  )
       422           O   tau( 422) = (   0.1578760   0.8955590   0.0161985  )
       423           O   tau( 423) = (   0.1626260   0.3967770   0.5118470  )
       424           O   tau( 424) = (   0.6701640   0.9141590   0.5190980  )
       425           O   tau( 425) = (   0.0591253   0.4322680   0.4315290  )
       426           O   tau( 426) = (   0.5601770   0.9390740   0.4365630  )
       427           O   tau( 427) = (   0.5705520   0.4433370   0.9390830  )
       428           O   tau( 428) = (   0.0607186   0.9318070   0.9432860  )
       429           O   tau( 429) = (   0.4302210   0.0601615   0.4356730  )
       430           O   tau( 430) = (   0.9353340   0.5628380   0.4372480  )
       431           O   tau( 431) = (   0.9421210   0.0652184   0.9358080  )
       432           O   tau( 432) = (   0.4393350   0.5638770   0.9382460  )
       433           O   tau( 433) = (   0.4366000   0.4326260   0.0625530  )
       434           O   tau( 434) = (   0.9298620   0.9388250   0.0645577  )
       435           O   tau( 435) = (   0.9381460   0.4357710   0.5631950  )
       436           O   tau( 436) = (   0.4405760   0.9402990   0.5681610  )
       437           O   tau( 437) = (   0.0641082   0.0570301   0.0652783  )
       438           O   tau( 438) = (   0.5567660   0.5675230   0.0692859  )
       439           O   tau( 439) = (   0.5612020   0.0693950   0.5589460  )
       440           O   tau( 440) = (   0.0686890   0.5598040   0.5582000  )
       441           O   tau( 441) = (   0.9574790   0.0486929   0.0460058  )
       442           O   tau( 442) = (   0.4499440   0.5467120   0.0452770  )
       443           O   tau( 443) = (   0.4530580   0.0471890   0.5477330  )
       444           O   tau( 444) = (   0.9564570   0.5436230   0.5450050  )
       445           O   tau( 445) = (   0.5459280   0.4561010   0.0479776  )
       446           O   tau( 446) = (   0.0410729   0.9514400   0.0493540  )
       447           O   tau( 447) = (   0.0477024   0.4482740   0.5433110  )
       448           O   tau( 448) = (   0.5465290   0.9586620   0.5482240  )
       449           O   tau( 449) = (   0.5422770   0.0492632   0.4503410  )
       450           O   tau( 450) = (   0.0470905   0.5422080   0.4475180  )
       451           O   tau( 451) = (   0.0503222   0.0427205   0.9551500  )
       452           O   tau( 452) = (   0.5441040   0.5535750   0.9567710  )
       453           O   tau( 453) = (   0.9536130   0.4531660   0.4535360  )
       454           O   tau( 454) = (   0.4551380   0.9531680   0.4567300  )
       455           O   tau( 455) = (   0.4592240   0.4556290   0.9522100  )
       456           O   tau( 456) = (   0.9526760   0.9565810   0.9537150  )

   Crystallographic axes

     site n.     atom                  positions (cryst. coord.)
         1           Zr  tau(   1) = (  0.1168900  0.9928000  0.0043924  )
         2           Zr  tau(   2) = (  0.6154210  0.5095650  0.0067214  )
         3           Zr  tau(   3) = (  0.6160050  0.0052029  0.4977320  )
         4           Zr  tau(   4) = (  0.1189190  0.4925910  0.4937760  )
         5           Zr  tau(   5) = (  0.8815590  0.0076692  0.9983420  )
         6           Zr  tau(   6) = (  0.3835640  0.4946340  0.9975480  )
         7           Zr  tau(   7) = (  0.3811570  0.9981680  0.5036210  )
         8           Zr  tau(   8) = (  0.8822090  0.4993510  0.5006290  )
         9           Zr  tau(   9) = (  0.0077414  0.1177260  0.9992330  )
        10           Zr  tau(  10) = (  0.4944520  0.6224150  0.0039160  )
        11           Zr  tau(  11) = (  0.4932070  0.1185310  0.4963800  )
        12           Zr  tau(  12) = (  0.0044799  0.6142030  0.4989630  )
        13           Zr  tau(  13) = (  0.5043960  0.3832190  0.9984010  )
        14           Zr  tau(  14) = (  0.9904720  0.8816120  1.0024800  )
        15           Zr  tau(  15) = (  0.9968070  0.3770290  0.4977790  )
        16           Zr  tau(  16) = (  0.5026110  0.8836990  0.5057190  )
        17           Zr  tau(  17) = (  0.9947620  0.9998310  0.1200550  )
        18           Zr  tau(  18) = (  0.4930710  0.5010000  0.1188780  )
        19           Zr  tau(  19) = (  0.5044640  0.0073176  0.6193970  )
        20           Zr  tau(  20) = (  0.0080162  0.4988570  0.6151770  )
        21           Zr  tau(  21) = (  0.4946630  1.0001500  0.3811200  )
        22           Zr  tau(  22) = (  0.9953610  0.4978400  0.3763070  )
        23           Zr  tau(  23) = (  0.0042169  0.9966960  0.8820920  )
        24           Zr  tau(  24) = (  0.5065750  0.5060380  0.8823590  )
        25           C   tau(  25) = (  0.7528580  0.2018190  0.4705190  )
        26           C   tau(  26) = (  0.2724020  0.6795930  0.4889260  )
        27           C   tau(  27) = (  0.2746520  0.1836580  0.9560760  )
        28           C   tau(  28) = (  0.7545310  0.6961360  0.9751100  )
        29           C   tau(  29) = (  0.7251720  0.3235460  0.4760900  )
        30           C   tau(  30) = (  0.2305670  0.8041800  0.4904110  )
        31           C   tau(  31) = (  0.2462740  0.3052530  0.9706130  )
        32           C   tau(  32) = (  0.7261620  0.8310350  0.9747100  )
        33           C   tau(  33) = (  0.7505600  0.2006110  0.0146245  )
        34           C   tau(  34) = (  0.2217640  0.6749540  0.0102508  )
        35           C   tau(  35) = (  0.2236290  0.1744520  0.5299240  )
        36           C   tau(  36) = (  0.7382480  0.6925850  0.5138590  )
        37           C   tau(  37) = (  0.7740970  0.3309010  0.0227858  )
        38           C   tau(  38) = (  0.2536190  0.7988860  0.0185867  )
        39           C   tau(  39) = (  0.2578360  0.3018010  0.5309070  )
        40           C   tau(  40) = (  0.7701120  0.8160260  0.5439280  )
        41           C   tau(  41) = (  0.9941940  0.2682940  0.1846740  )
        42           C   tau(  42) = (  0.4652840  0.7604500  0.1978550  )
        43           C   tau(  43) = (  0.4833500  0.2765530  0.6804170  )
        44           C   tau(  44) = (  0.9810510  0.7641600  0.6871990  )
        45           C   tau(  45) = (  0.9657390  0.2308760  0.3120780  )
        46           C   tau(  46) = (  0.4860440  0.7264420  0.3211670  )
        47           C   tau(  47) = (  0.5193800  0.2425220  0.8012510  )
        48           C   tau(  48) = (  0.9824480  0.7294920  0.8101530  )
        49           C   tau(  49) = (  0.5156060  0.2331940  0.1873060  )
        50           C   tau(  50) = (  0.0258365  0.7349420  0.1902070  )
        51           C   tau(  51) = (  0.0145192  0.2311190  0.6858280  )
        52           C   tau(  52) = (  0.5129370  0.7410050  0.6897440  )
        53           C   tau(  53) = (  0.5128710  0.2692020  0.3089020  )
        54           C   tau(  54) = (  0.0229484  0.7641250  0.3155160  )
        55           C   tau(  55) = (  0.0180069  0.2585340  0.8110770  )
        56           C   tau(  56) = (  0.5179970  0.7764160  0.8229140  )
        57           C   tau(  57) = (  0.6687160  0.4633680  0.2729700  )
        58           C   tau(  58) = (  0.1839380  0.9706170  0.2712550  )
        59           C   tau(  59) = (  0.1994540  0.4915780  0.7573730  )
        60           C   tau(  60) = (  0.6923600  0.9834520  0.7606770  )
        61           C   tau(  61) = (  0.7974440  0.4675150  0.2390330  )
        62           C   tau(  62) = (  0.3040830  0.9516030  0.2405890  )
        63           C   tau(  63) = (  0.3258500  0.4791160  0.7287370  )
        64           C   tau(  64) = (  0.8168130  0.9930730  0.7236260  )
        65           C   tau(  65) = (  0.6808110  0.0217525  0.2284370  )
        66           C   tau(  66) = (  0.1759160  0.5089700  0.2190750  )
        67           C   tau(  67) = (  0.1924890  0.0227342  0.7357120  )
        68           C   tau(  68) = (  0.6975860  0.5254000  0.7439060  )
        69           C   tau(  69) = (  0.8054560  0.0328600  0.2640570  )
        70           C   tau(  70) = (  0.2990680  0.4993620  0.2541160  )
        71           C   tau(  71) = (  0.3219310  0.0208218  0.7729200  )
        72           C   tau(  72) = (  0.8187040  0.5083790  0.7707040  )
        73           C   tau(  73) = (  0.6705270  0.2821770  0.4700410  )
        74           C   tau(  74) = (  0.1844130  0.7562940  0.4867060  )
        75           C   tau(  75) = (  0.1925830  0.2584780  0.9818730  )
        76           C   tau(  76) = (  0.6755330  0.7854750  0.9793530  )
        77           C   tau(  77) = (  0.8019720  0.2427360  0.4769840  )
        78           C   tau(  78) = (  0.3162390  0.7293950  0.4911610  )
        79           C   tau(  79) = (  0.3232440  0.2308750  0.9480890  )
        80           C   tau(  80) = (  0.8005500  0.7453210  0.9668690  )
        81           C   tau(  81) = (  0.7005680  0.2461870  0.0088499  )
        82           C   tau(  82) = (  0.1744790  0.7231350  0.0113924  )
        83           C   tau(  83) = (  0.1799470  0.2267400  0.5260470  )
        84           C   tau(  84) = (  0.6911350  0.7374370  0.5141910  )
        85           C   tau(  85) = (  0.8239390  0.2821350  0.0231844  )
        86           C   tau(  86) = (  0.3010050  0.7561310  0.0103640  )
        87           C   tau(  87) = (  0.3095240  0.2573800  0.5365780  )
        88           C   tau(  88) = (  0.8171500  0.7689940  0.5465040  )
        89           C   tau(  89) = (  0.7545630  0.4745410  0.1889520  )
        90           C   tau(  90) = (  0.2633960  0.9650460  0.1899260  )
        91           C   tau(  91) = (  0.2778840  0.4794490  0.6841650  )
        92           C   tau(  92) = (  0.7701140  0.9943370  0.6742150  )
        93           C   tau(  93) = (  0.7188370  0.4635980  0.3190000  )
        94           C   tau(  94) = (  0.2287310  0.9636980  0.3207440  )
        95           C   tau(  95) = (  0.2450040  0.4975860  0.8064860  )
        96           C   tau(  96) = (  0.7399070  0.9775260  0.8057490  )
        97           C   tau(  97) = (  0.7289030  0.0220508  0.1831780  )
        98           C   tau(  98) = (  0.2239600  0.5112050  0.1727560  )
        99           C   tau(  99) = (  0.2397650  0.0217169  0.6901080  )
       100           C   tau( 100) = (  0.7412600  0.5216430  0.6915140  )
       101           C   tau( 101) = (  0.7571620  0.0317789  0.3091620  )
       102           C   tau( 102) = (  0.2588910  0.5033630  0.3063540  )
       103           C   tau( 103) = (  0.2705650  0.0180756  0.8170400  )
       104           C   tau( 104) = (  0.7749750  0.5088440  0.8204570  )
       105           C   tau( 105) = (  0.9766330  0.1887180  0.2620880  )
       106           C   tau( 106) = (  0.4791790  0.6790730  0.2723310  )
       107           C   tau( 107) = (  0.5157030  0.1976440  0.7555580  )
       108           C   tau( 108) = (  0.9870750  0.6782950  0.7648400  )
       109           C   tau( 109) = (  0.9851830  0.3152390  0.2311600  )
       110           C   tau( 110) = (  0.4675300  0.8081990  0.2426870  )
       111           C   tau( 111) = (  0.4825370  0.3178450  0.7334240  )
       112           C   tau( 112) = (  0.9800630  0.8131850  0.7349810  )
       113           C   tau( 113) = (  0.5168460  0.1837670  0.2298190  )
       114           C   tau( 114) = (  0.0199150  0.6841010  0.2354220  )
       115           C   tau( 115) = (  0.0149119  0.1850240  0.7330100  )
       116           C   tau( 116) = (  0.5092600  0.6964770  0.7394440  )
       117           C   tau( 117) = (  0.5122470  0.3192750  0.2663120  )
       118           C   tau( 118) = (  0.0243299  0.8160870  0.2716050  )
       119           C   tau( 119) = (  0.0133931  0.3090360  0.7659780  )
       120           C   tau( 120) = (  0.5136700  0.8212890  0.7741920  )
       121           C   tau( 121) = (  0.6868420  0.2153910  0.4695570  )
       122           C   tau( 122) = (  0.2053510  0.6917860  0.4889030  )
       123           C   tau( 123) = (  0.2082420  0.1938670  0.9744050  )
       124           C   tau( 124) = (  0.6908620  0.7153890  0.9785780  )
       125           C   tau( 125) = (  0.7899340  0.3077160  0.4784090  )
       126           C   tau( 126) = (  0.3001460  0.7963330  0.4919910  )
       127           C   tau( 127) = (  0.3111920  0.2971690  0.9587060  )
       128           C   tau( 128) = (  0.7882660  0.8116300  0.9709150  )
       129           C   tau( 129) = (  0.8152230  0.2140410  0.0220823  )
       130           C   tau( 130) = (  0.2871190  0.6905060  0.0107200  )
       131           C   tau( 131) = (  0.2885860  0.1924680  0.5304760  )
       132           C   tau( 132) = (  0.8038430  0.7058040  0.5271160  )
       133           C   tau( 133) = (  0.7107840  0.3132080  0.0157471  )
       134           C   tau( 134) = (  0.1871220  0.7891750  0.0203343  )
       135           C   tau( 135) = (  0.1915600  0.2923480  0.5259690  )
       136           C   tau( 136) = (  0.7046620  0.8048080  0.5259910  )
       137           C   tau( 137) = (  0.9889610  0.2030420  0.1986150  )
       138           C   tau( 138) = (  0.4725040  0.6963060  0.2084160  )
       139           C   tau( 139) = (  0.4983340  0.2127730  0.6931100  )
       140           C   tau( 140) = (  0.9842080  0.6989850  0.7006870  )
       141           C   tau( 141) = (  0.9735930  0.2962590  0.2968770  )
       142           C   tau( 142) = (  0.4800130  0.7935410  0.3061160  )
       143           C   tau( 143) = (  0.5026850  0.3078450  0.7948080  )
       144           C   tau( 144) = (  0.9832630  0.7977520  0.8016080  )
       145           C   tau( 145) = (  0.5137950  0.2988100  0.2011070  )
       146           C   tau( 146) = (  0.0259967  0.7995910  0.2059110  )
       147           C   tau( 147) = (  0.0108746  0.2972120  0.7000860  )
       148           C   tau( 148) = (  0.5128650  0.8057200  0.7078730  )
       149           C   tau( 149) = (  0.5142560  0.2029280  0.2925190  )
       150           C   tau( 150) = (  0.0203042  0.7015840  0.3000690  )
       151           C   tau( 151) = (  0.0210649  0.1946940  0.7982140  )
       152           C   tau( 152) = (  0.5141420  0.7091680  0.8041360  )
       153           C   tau( 153) = (  0.6906880  0.4722080  0.2105940  )
       154           C   tau( 154) = (  0.1981700  0.9731460  0.2050520  )
       155           C   tau( 155) = (  0.2118280  0.4840630  0.6916300  )
       156           C   tau( 156) = (  0.7061830  0.9910620  0.6948720  )
       157           C   tau( 157) = (  0.7862280  0.4639480  0.3090590  )
       158           C   tau( 158) = (  0.2949230  0.9574610  0.3066520  )
       159           C   tau( 159) = (  0.3110380  0.4901520  0.7923860  )
       160           C   tau( 160) = (  0.8036970  0.9889690  0.7920970  )
       161           C   tau( 161) = (  0.6924260  0.0271656  0.2920920  )
       162           C   tau( 162) = (  0.1952450  0.5046460  0.2895010  )
       163           C   tau( 163) = (  0.2042360  0.0189103  0.8007010  )
       164           C   tau( 164) = (  0.7092080  0.5169930  0.8086390  )
       165           C   tau( 165) = (  0.7961380  0.0258758  0.1994070  )
       166           C   tau( 166) = (  0.2875110  0.5042250  0.1881700  )
       167           C   tau( 167) = (  0.3041510  0.0216200  0.7104430  )
       168           C   tau( 168) = (  0.8070680  0.5167750  0.7045340  )
       169           C   tau( 169) = (  0.5099420  0.1496320  0.3450430  )
       170           C   tau( 170) = (  0.0142684  0.6495680  0.3502470  )
       171           C   tau( 171) = (  0.0276774  0.1441470  0.8480590  )
       172           C   tau( 172) = (  0.5098340  0.6581560  0.8555780  )
       173           C   tau( 173) = (  0.9783080  0.3473290  0.3483320  )
       174           C   tau( 174) = (  0.4900320  0.8450760  0.3573900  )
       175           C   tau( 175) = (  0.5119670  0.3585030  0.8459760  )
       176           C   tau( 176) = (  0.9839170  0.8469470  0.8534860  )
       177           C   tau( 177) = (  0.9979490  0.1531130  0.1472360  )
       178           C   tau( 178) = (  0.4702140  0.6463560  0.1562160  )
       179           C   tau( 179) = (  0.4943060  0.1618980  0.6439920  )
       180           C   tau( 180) = (  0.9918770  0.6485470  0.6493480  )
       181           C   tau( 181) = (  0.5114700  0.3507150  0.1501500  )
       182           C   tau( 182) = (  0.0208452  0.8505190  0.1541030  )
       183           C   tau( 183) = (  0.0148775  0.3479840  0.6473590  )
       184           C   tau( 184) = (  0.5180150  0.8570820  0.6581120  )
       185           C   tau( 185) = (  0.8449560  0.0238531  0.1485390  )
       186           C   tau( 186) = (  0.3401350  0.5021420  0.1415920  )
       187           C   tau( 187) = (  0.3538900  0.0140248  0.6554760  )
       188           C   tau( 188) = (  0.8586510  0.5140950  0.6526690  )
       189           C   tau( 189) = (  0.8401130  0.4734310  0.3574360  )
       190           C   tau( 190) = (  0.3482180  0.9596850  0.3568520  )
       191           C   tau( 191) = (  0.3592090  0.4980850  0.8445950  )
       192           C   tau( 192) = (  0.8524290  0.9946200  0.8451170  )
       193           C   tau( 193) = (  0.6414650  0.4847930  0.1576060  )
       194           C   tau( 194) = (  0.1480960  0.9843830  0.1539180  )
       195           C   tau( 195) = (  0.1596960  0.4832330  0.6409410  )
       196           C   tau( 196) = (  0.6543990  0.9993510  0.6471510  )
       197           C   tau( 197) = (  0.6436910  0.0138977  0.3450890  )
       198           C   tau( 198) = (  0.1461180  0.5026300  0.3418070  )
       199           C   tau( 199) = (  0.1512090  1.0045900  0.8507180  )
       200           C   tau( 200) = (  0.6585940  0.5207570  0.8599310  )
       201           C   tau( 201) = (  0.6560220  0.3617540  0.0089705  )
       202           C   tau( 202) = (  0.1358120  0.8403770  0.0137673  )
       203           C   tau( 203) = (  0.1425880  0.3403330  0.5110010  )
       204           C   tau( 204) = (  0.6524880  0.8557760  0.5203310  )
       205           C   tau( 205) = (  0.8454210  0.3532210  0.4934260  )
       206           C   tau( 206) = (  0.3528670  0.8469700  0.5043460  )
       207           C   tau( 207) = (  0.3597160  0.3483040  0.9637910  )
       208           C   tau( 208) = (  0.8422990  0.8584120  0.9754900  )
       209           C   tau( 209) = (  0.6413950  0.1579490  0.4749430  )
       210           C   tau( 210) = (  0.1519090  0.6436200  0.4812530  )
       211           C   tau( 211) = (  0.1579040  0.1416430  0.9898200  )
       212           C   tau( 212) = (  0.6433400  0.6591760  0.9946570  )
       213           C   tau( 213) = (  0.8626920  0.1606040  0.0143209  )
       214           C   tau( 214) = (  0.3408970  0.6405830  0.0099764  )
       215           C   tau( 215) = (  0.3448680  0.1465470  0.5232480  )
       216           C   tau( 216) = (  0.8549760  0.6513360  0.5198310  )
       217           H   tau( 217) = (  0.7614820  0.1500290  0.4670460  )
       218           H   tau( 218) = (  0.2875820  0.6315900  0.4953580  )
       219           H   tau( 219) = (  0.2879050  0.1318950  0.9515670  )
       220           H   tau( 220) = (  0.7702700  0.6444860  0.9755110  )
       221           H   tau( 221) = (  0.7167140  0.3753650  0.4684500  )
       222           H   tau( 222) = (  0.2194020  0.8525330  0.4924650  )
       223           H   tau( 223) = (  0.2393880  0.3563530  0.9835030  )
       224           H   tau( 224) = (  0.7102980  0.8833280  0.9690270  )
       225           H   tau( 225) = (  0.7339890  0.1477990  0.0133019  )
       226           H   tau( 226) = (  0.2180110  0.6227340  0.0170917  )
       227           H   tau( 227) = (  0.2117220  0.1205680  0.5282230  )
       228           H   tau( 228) = (  0.7268480  0.6436530  0.5005160  )
       229           H   tau( 229) = (  0.7848740  0.3811130  0.0266767  )
       230           H   tau( 230) = (  0.2659890  0.8503400  0.0177856  )
       231           H   tau( 231) = (  0.2695430  0.3532460  0.5219250  )
       232           H   tau( 232) = (  0.7786940  0.8672730  0.5567080  )
       233           H   tau( 233) = (  0.0008719  0.2748180  0.1320970  )
       234           H   tau( 234) = (  0.4607380  0.7728630  0.1468310  )
       235           H   tau( 235) = (  0.4657340  0.2885000  0.6321360  )
       236           H   tau( 236) = (  0.9850410  0.7805400  0.6390280  )
       237           H   tau( 237) = (  0.9572550  0.2203790  0.3656210  )
       238           H   tau( 238) = (  0.4886590  0.7192830  0.3727090  )
       239           H   tau( 239) = (  0.5372740  0.2274520  0.8480490  )
       240           H   tau( 240) = (  0.9861450  0.7122410  0.8641110  )
       241           H   tau( 241) = (  0.5155870  0.2172310  0.1365800  )
       242           H   tau( 242) = (  0.0226350  0.7215470  0.1382120  )
       243           H   tau( 243) = (  0.0105018  0.2215370  0.6333720  )
       244           H   tau( 244) = (  0.5146090  0.7228020  0.6419400  )
       245           H   tau( 245) = (  0.5098490  0.2837860  0.3611430  )
       246           H   tau( 246) = (  0.0238934  0.7767500  0.3661260  )
       247           H   tau( 247) = (  0.0199619  0.2706640  0.8618430  )
       248           H   tau( 248) = (  0.5173600  0.7881000  0.8738980  )
       249           H   tau( 249) = (  0.6196240  0.4642670  0.2910420  )
       250           H   tau( 250) = (  0.1348050  0.9816370  0.2836010  )
       251           H   tau( 251) = (  0.1478580  0.4863860  0.7758380  )
       252           H   tau( 252) = (  0.6438040  0.9871900  0.7820470  )
       253           H   tau( 253) = (  0.8476530  0.4713350  0.2234440  )
       254           H   tau( 254) = (  0.3541670  0.9370510  0.2324540  )
       255           H   tau( 255) = (  0.3762470  0.4736250  0.7125140  )
       256           H   tau( 256) = (  0.8683710  0.9927160  0.7164420  )
       257           H   tau( 257) = (  0.6336740  0.0213267  0.2079040  )
       258           H   tau( 258) = (  0.1243420  0.5127440  0.2094010  )
       259           H   tau( 259) = (  0.1434120  0.0187241  0.7184100  )
       260           H   tau( 260) = (  0.6459020  0.5269290  0.7296280  )
       261           H   tau( 261) = (  0.8564710  0.0375042  0.2794980  )
       262           H   tau( 262) = (  0.3533160  0.4947470  0.2640160  )
       263           H   tau( 263) = (  0.3740260  0.0151582  0.7843490  )
       264           H   tau( 264) = (  0.8712180  0.5032810  0.7814700  )
       265           H   tau( 265) = (  0.6205490  0.3054460  0.4695230  )
       266           H   tau( 266) = (  0.1326720  0.7686310  0.4800090  )
       267           H   tau( 267) = (  0.1444260  0.2754200  0.9949440  )
       268           H   tau( 268) = (  0.6260630  0.8021120  0.9763400  )
       269           H   tau( 269) = (  0.8551550  0.2356940  0.4773410  )
       270           H   tau( 270) = (  0.3708460  0.7198630  0.4935770  )
       271           H   tau( 271) = (  0.3723590  0.2223200  0.9300670  )
       272           H   tau( 272) = (  0.8494500  0.7295500  0.9583730  )
       273           H   tau( 273) = (  0.6489240  0.2333000  0.0018146  )
       274           H   tau( 274) = (  0.1222900  0.7099630  0.0142791  )
       275           H   tau( 275) = (  0.1294970  0.2170670  0.5288620  )
       276           H   tau( 276) = (  0.6399240  0.7279050  0.5009010  )
       277           H   tau( 277) = (  0.8740700  0.2965270  0.0265458  )
       278           H   tau( 278) = (  0.3527310  0.7691760  0.0058041  )
       279           H   tau( 279) = (  0.3570650  0.2763840  0.5475520  )
       280           H   tau( 280) = (  0.8710450  0.7793160  0.5590770  )
       281           H   tau( 281) = (  0.7679780  0.4789870  0.1367710  )
       282           H   tau( 282) = (  0.2784900  0.9674950  0.1379080  )
       283           H   tau( 283) = (  0.2830260  0.4705210  0.6330340  )
       284           H   tau( 284) = (  0.7809510  0.9995580  0.6216730  )
       285           H   tau( 285) = (  0.7101720  0.4695590  0.3698090  )
       286           H   tau( 286) = (  0.2221200  0.9660950  0.3723480  )
       287           H   tau( 287) = (  0.2227900  0.5088950  0.8529050  )
       288           H   tau( 288) = (  0.7319230  0.9679390  0.8567470  )
       289           H   tau( 289) = (  0.7171890  0.0210287  0.1323450  )
       290           H   tau( 290) = (  0.2157090  0.5167920  0.1201050  )
       291           H   tau( 291) = (  0.2182540  0.0226078  0.6417290  )
       292           H   tau( 292) = (  0.7252930  0.5273520  0.6434690  )
       293           H   tau( 293) = (  0.7692840  0.0277211  0.3591660  )
       294           H   tau( 294) = (  0.2721190  0.5049110  0.3551700  )
       295           H   tau( 295) = (  0.2796260  0.0102452  0.8694900  )
       296           H   tau( 296) = (  0.7872860  0.5088420  0.8717930  )
       297           H   tau( 297) = (  0.9726830  0.1386710  0.2770420  )
       298           H   tau( 298) = (  0.4769870  0.6266950  0.2802390  )
       299           H   tau( 299) = (  0.5307430  0.1487560  0.7616030  )
       300           H   tau( 300) = (  0.9951870  0.6276710  0.7808640  )
       301           H   tau( 301) = (  0.9869950  0.3682010  0.2164220  )
       302           H   tau( 302) = (  0.4593560  0.8578010  0.2312800  )
       303           H   tau( 303) = (  0.4595180  0.3649650  0.7217270  )
       304           H   tau( 304) = (  0.9770030  0.8621970  0.7225360  )
       305           H   tau( 305) = (  0.5162940  0.1350380  0.2101020  )
       306           H   tau( 306) = (  0.0181806  0.6272630  0.2281780  )
       307           H   tau( 307) = (  0.0091434  0.1301210  0.7248520  )
       308           H   tau( 308) = (  0.5051440  0.6454890  0.7302130  )
       309           H   tau( 309) = (  0.5123300  0.3719860  0.2742030  )
       310           H   tau( 310) = (  0.0254949  0.8686010  0.2862750  )
       311           H   tau( 311) = (  0.0087676  0.3580310  0.7835140  )
       312           H   tau( 312) = (  0.5116320  0.8730360  0.7891790  )
       313           H   tau( 313) = (  0.0822927  0.4052550  0.4064580  )
       314           H   tau( 314) = (  0.5830170  0.9141290  0.4107590  )
       315           H   tau( 315) = (  0.5968380  0.4200660  0.9175650  )
       316           H   tau( 316) = (  0.0852794  0.9057020  0.9181960  )
       317           H   tau( 317) = (  0.4013940  0.0805579  0.4135180  )
       318           H   tau( 318) = (  0.9105440  0.5884350  0.4133910  )
       319           H   tau( 319) = (  0.9201750  0.0893094  0.9099800  )
       320           H   tau( 320) = (  0.4116250  0.5865350  0.9136740  )
       321           H   tau( 321) = (  0.4145610  0.4034760  0.0845157  )
       322           H   tau( 322) = (  0.9024830  0.9147710  0.0893824  )
       323           H   tau( 323) = (  0.9119500  0.4102540  0.5891790  )
       324           H   tau( 324) = (  0.4144670  0.9179780  0.5961980  )
       325           H   tau( 325) = (  0.0884898  0.0793620  0.0892256  )
       326           H   tau( 326) = (  0.5826370  0.5925970  0.0929590  )
       327           H   tau( 327) = (  0.5857210  0.0992915  0.5813300  )
       328           H   tau( 328) = (  0.0964653  0.5838940  0.5802640  )
       329           O   tau( 329) = (  0.5074560  0.0913973  0.3269010  )
       330           O   tau( 330) = (  0.0154698  0.5931320  0.3319320  )
       331           O   tau( 331) = (  0.0192759  0.0875932  0.8283910  )
       332           O   tau( 332) = (  0.5113960  0.6027250  0.8361440  )
       333           O   tau( 333) = (  0.9865050  0.4026030  0.3293510  )
       334           O   tau( 334) = (  0.4994790  0.9021860  0.3372390  )
       335           O   tau( 335) = (  0.5092200  0.4150900  0.8266730  )
       336           O   tau( 336) = (  0.9826820  0.9038890  0.8342700  )
       337           O   tau( 337) = ( -0.0042687  0.0964404  0.1664110  )
       338           O   tau( 338) = (  0.4743210  0.5905770  0.1740970  )
       339           O   tau( 339) = (  0.5001090  0.1050700  0.6652260  )
       340           O   tau( 340) = (  0.9928380  0.5899720  0.6687000  )
       341           O   tau( 341) = (  0.5051640  0.4073010  0.1707470  )
       342           O   tau( 342) = (  0.0196479  0.9088280  0.1711950  )
       343           O   tau( 343) = (  0.0185821  0.4059050  0.6654010  )
       344           O   tau( 344) = (  0.5177410  0.9159950  0.6738850  )
       345           O   tau( 345) = (  0.8286150  0.0217383  0.0900284  )
       346           O   tau( 346) = (  0.3239810  0.5014220  0.0849403  )
       347           O   tau( 347) = (  0.3339550  0.0069115  0.6011020  )
       348           O   tau( 348) = (  0.8414710  0.5228020  0.5964670  )
       349           O   tau( 349) = (  0.8230430  0.4791980  0.4151040  )
       350           O   tau( 350) = (  0.3312860  0.9623080  0.4150240  )
       351           O   tau( 351) = (  0.3378970  0.5023890  0.9003800  )
       352           O   tau( 352) = (  0.8329610  1.0013300  0.9015050  )
       353           O   tau( 353) = (  0.6615850  0.4918390  0.1013450  )
       354           O   tau( 354) = (  0.1671090  0.9783110  0.0987738  )
       355           O   tau( 355) = (  0.1761760  0.4842630  0.5827290  )
       356           O   tau( 356) = (  0.6702910  1.0131800  0.5898350  )
       357           O   tau( 357) = (  0.6611720  0.0166021  0.4019330  )
       358           O   tau( 358) = (  0.1670810  0.5002000  0.3997340  )
       359           O   tau( 359) = (  0.1672270  0.9973290  0.9085260  )
       360           O   tau( 360) = (  0.6756040  0.5196530  0.9189840  )
       361           O   tau( 361) = (  0.6018230  0.3396230  0.0030382  )
       362           O   tau( 362) = (  0.0806579  0.8251450  0.0018485  )
       363           O   tau( 363) = (  0.0870249  0.3213520  0.5005480  )
       364           O   tau( 364) = (  0.5971880  0.8370100  0.5094320  )
       365           O   tau( 365) = (  0.9004030  0.3314530  0.4942500  )
       366           O   tau( 366) = (  0.4098980  0.8283090  0.5027530  )
       367           O   tau( 367) = (  0.4160590  0.3308480  0.9657260  )
       368           O   tau( 368) = (  0.8969370  0.8367770  0.9819700  )
       369           O   tau( 369) = (  0.5834540  0.1740500  0.4815770  )
       370           O   tau( 370) = (  0.0960003  0.6640270  0.4815640  )
       371           O   tau( 371) = (  0.1040600  0.1625850  1.0044000  )
       372           O   tau( 372) = (  0.5882530  0.6755470  1.0042000  )
       373           O   tau( 373) = (  0.9203870  0.1767920  0.0169359  )
       374           O   tau( 374) = (  0.3958720  0.6620240  0.0102724  )
       375           O   tau( 375) = (  0.4016720  0.1680970  0.5174160  )
       376           O   tau( 376) = (  0.9127990  0.6674330  0.5192020  )
       377           O   tau( 377) = (  0.5881690  1.0007900  0.3272510  )
       378           O   tau( 378) = (  0.0896910  0.4953190  0.3255210  )
       379           O   tau( 379) = (  0.0952028  0.9970300  0.8296170  )
       380           O   tau( 380) = (  0.6036850  0.5287370  0.8398610  )
       381           O   tau( 381) = (  0.8967220  0.4766960  0.3364470  )
       382           O   tau( 382) = (  0.4045070  0.9625350  0.3369500  )
       383           O   tau( 383) = (  0.4171540  0.4938670  0.8272570  )
       384           O   tau( 384) = (  0.9109240 -0.0084103  0.8302900  )
       385           O   tau( 385) = (  0.5838820  0.4863100  0.1741230  )
       386           O   tau( 386) = (  0.0897809  0.9991770  0.1694740  )
       387           O   tau( 387) = (  0.1034430  0.4808020  0.6628650  )
       388           O   tau( 388) = (  0.5990970  1.0014700  0.6686180  )
       389           O   tau( 389) = (  0.9023900  0.0273935  0.1670700  )
       390           O   tau( 390) = (  0.3965070  0.4988440  0.1659020  )
       391           O   tau( 391) = (  0.4141140  0.0123732  0.6740270  )
       392           O   tau( 392) = (  0.9145340  0.5019180  0.6707910  )
       393           O   tau( 393) = (  0.5229800  0.3337530  0.0907435  )
       394           O   tau( 394) = (  0.0127238  0.8322070  0.0971097  )
       395           O   tau( 395) = (  0.0144583  0.3288100  0.5896330  )
       396           O   tau( 396) = (  0.5188010  0.8337130  0.6000390  )
       397           O   tau( 397) = (  0.9845610  0.3263570  0.4051910  )
       398           O   tau( 398) = (  0.4898760  0.8274980  0.4144690  )
       399           O   tau( 399) = (  0.5171500  0.3394610  0.9023620  )
       400           O   tau( 400) = (  0.9841530  0.8306460  0.9090910  )
       401           O   tau( 401) = (  0.0030006  0.1707110  0.0913917  )
       402           O   tau( 402) = (  0.4658080  0.6638870  0.0992366  )
       403           O   tau( 403) = (  0.4902610  0.1766170  0.5855050  )
       404           O   tau( 404) = (  0.0056101  0.6682250  0.5941460  )
       405           O   tau( 405) = (  0.5016690  0.1694790  0.4020170  )
       406           O   tau( 406) = (  0.0100819  0.6673540  0.4065370  )
       407           O   tau( 407) = (  0.0351676  0.1625510  0.9065530  )
       408           O   tau( 408) = (  0.5019650  0.6752800  0.9121050  )
       409           O   tau( 409) = (  0.8397060  0.1059010  0.0022125  )
       410           O   tau( 410) = (  0.3258640  0.5843170  0.0026270  )
       411           O   tau( 411) = (  0.3292180  0.0888463  0.5247520  )
       412           O   tau( 412) = (  0.8327960  0.5934710  0.5112510  )
       413           O   tau( 413) = (  0.8288610  0.4078110  0.5043090  )
       414           O   tau( 414) = (  0.3351610  0.9029880  0.5137280  )
       415           O   tau( 415) = (  0.3388840  0.4032630  0.9659350  )
       416           O   tau( 416) = (  0.8267670  0.9167970  0.9780000  )
       417           O   tau( 417) = (  0.6617710  0.1010070  0.4770360  )
       418           O   tau( 418) = (  0.1690850  0.5850080  0.4793530  )
       419           O   tau( 419) = (  0.1727690  0.0831229  0.9839110  )
       420           O   tau( 420) = (  0.6630650  0.6065930  0.9934810  )
       421           O   tau( 421) = (  0.6726770  0.4200090  0.0128844  )
       422           O   tau( 422) = (  0.1578760  0.8955590  0.0161985  )
       423           O   tau( 423) = (  0.1626260  0.3967770  0.5118470  )
       424           O   tau( 424) = (  0.6701640  0.9141590  0.5190980  )
       425           O   tau( 425) = (  0.0591253  0.4322680  0.4315290  )
       426           O   tau( 426) = (  0.5601770  0.9390740  0.4365630  )
       427           O   tau( 427) = (  0.5705520  0.4433370  0.9390830  )
       428           O   tau( 428) = (  0.0607186  0.9318070  0.9432860  )
       429           O   tau( 429) = (  0.4302210  0.0601615  0.4356730  )
       430           O   tau( 430) = (  0.9353340  0.5628380  0.4372480  )
       431           O   tau( 431) = (  0.9421210  0.0652184  0.9358080  )
       432           O   tau( 432) = (  0.4393350  0.5638770  0.9382460  )
       433           O   tau( 433) = (  0.4366000  0.4326260  0.0625530  )
       434           O   tau( 434) = (  0.9298620  0.9388250  0.0645577  )
       435           O   tau( 435) = (  0.9381460  0.4357710  0.5631950  )
       436           O   tau( 436) = (  0.4405760  0.9402990  0.5681610  )
       437           O   tau( 437) = (  0.0641082  0.0570301  0.0652783  )
       438           O   tau( 438) = (  0.5567660  0.5675230  0.0692859  )
       439           O   tau( 439) = (  0.5612020  0.0693950  0.5589460  )
       440           O   tau( 440) = (  0.0686890  0.5598040  0.5582000  )
       441           O   tau( 441) = (  0.9574790  0.0486929  0.0460058  )
       442           O   tau( 442) = (  0.4499440  0.5467120  0.0452770  )
       443           O   tau( 443) = (  0.4530580  0.0471890  0.5477330  )
       444           O   tau( 444) = (  0.9564570  0.5436230  0.5450050  )
       445           O   tau( 445) = (  0.5459280  0.4561010  0.0479776  )
       446           O   tau( 446) = (  0.0410729  0.9514400  0.0493540  )
       447           O   tau( 447) = (  0.0477024  0.4482740  0.5433110  )
       448           O   tau( 448) = (  0.5465290  0.9586620  0.5482240  )
       449           O   tau( 449) = (  0.5422770  0.0492632  0.4503410  )
       450           O   tau( 450) = (  0.0470905  0.5422080  0.4475180  )
       451           O   tau( 451) = (  0.0503222  0.0427205  0.9551500  )
       452           O   tau( 452) = (  0.5441040  0.5535750  0.9567710  )
       453           O   tau( 453) = (  0.9536130  0.4531660  0.4535360  )
       454           O   tau( 454) = (  0.4551380  0.9531680  0.4567300  )
       455           O   tau( 455) = (  0.4592240  0.4556290  0.9522100  )
       456           O   tau( 456) = (  0.9526760  0.9565810  0.9537150  )

     number of k points=     1
                       cart. coord. in units 2pi/alat
        k(    1) = (   0.0000000   0.0000000   0.0000000), wk =   2.0000000

                       cryst. coord.
        k(    1) = (   0.0000000   0.0000000   0.0000000), wk =   2.0000000

     Dense  grid:  8283703 G-vectors     FFT dimensions: ( 256, 256, 256)

     Smooth grid:  3850727 G-vectors     FFT dimensions: ( 200, 200, 200)

     Dynamical RAM for                 wfc:      55.52 MB

     Dynamical RAM for     wfc (w. buffer):      55.52 MB

     Dynamical RAM for           str. fact:       3.95 MB

     Dynamical RAM for           local pot:       0.00 MB

     Dynamical RAM for          nlocal pot:     184.46 MB

     Dynamical RAM for                qrad:       6.42 MB

     Dynamical RAM for          rho,v,vnew:       5.96 MB

     Dynamical RAM for               rhoin:       1.99 MB

     Dynamical RAM for            rho*nmix:      15.80 MB

     Dynamical RAM for           G-vectors:       3.93 MB

     Dynamical RAM for          h,s,v(r/c):       1.42 MB

     Dynamical RAM for          <psi|beta>:      47.50 MB

     Dynamical RAM for                 psi:     111.04 MB

     Dynamical RAM for                hpsi:     111.04 MB

     Dynamical RAM for                spsi:     111.04 MB

     Dynamical RAM for      wfcinit/wfcrot:     261.95 MB

     Dynamical RAM for           addusdens:     373.30 MB

     Dynamical RAM for          addusforce:     751.79 MB

     Dynamical RAM for         addusstress:     198.50 MB

     Estimated static dynamical RAM per process >     287.98 MB

     Estimated max dynamical RAM per process >       1.02 GB

     Estimated total dynamical RAM >     129.97 GB

     Check: negative core charge=   -0.000003

     Initial potential from superposition of free atoms

     starting charge 1935.93914, renormalised to 1936.00000

     negative rho (up, down):  2.111E-04 0.000E+00
     Starting wfcs are 1704 randomized atomic wfcs

     total cpu time spent up to now is       44.2 secs

     Self-consistent Calculation

     iteration #  1     ecut=    60.00 Ry     beta= 0.70
     Davidson diagonalization with overlap
     ethr =  1.00E-02,  avg # of iterations =  2.0

     negative rho (up, down):  2.372E-06 0.000E+00

     total cpu time spent up to now is      112.7 secs

     total energy              =   -9023.53181959 Ry
     estimated scf accuracy    <      75.65755288 Ry

     iteration #  2     ecut=    60.00 Ry     beta= 0.70
     Davidson diagonalization with overlap
     ethr =  3.91E-03,  avg # of iterations = 10.0

     negative rho (up, down):  7.255E-06 0.000E+00

     total cpu time spent up to now is      215.4 secs

     total energy              =   -9029.36335165 Ry
     estimated scf accuracy    <      94.67789511 Ry

     iteration #  3     ecut=    60.00 Ry     beta= 0.70
     Davidson diagonalization with overlap
     ethr =  3.91E-03,  avg # of iterations =  8.0

     negative rho (up, down):  2.317E-05 0.000E+00

     total cpu time spent up to now is      305.2 secs

     total energy              =   -9056.73104252 Ry
     estimated scf accuracy    <      24.01788710 Ry

     iteration #  4     ecut=    60.00 Ry     beta= 0.70
     Davidson diagonalization with overlap
     ethr =  1.24E-03,  avg # of iterations =  2.0

     negative rho (up, down):  6.189E-04 0.000E+00

     total cpu time spent up to now is      362.5 secs

     total energy              =   -9053.09067393 Ry
     estimated scf accuracy    <       8.12425439 Ry

     iteration #  5     ecut=    60.00 Ry     beta= 0.70
     Davidson diagonalization with overlap
     ethr =  4.20E-04,  avg # of iterations = 13.0

     negative rho (up, down):  8.096E-04 0.000E+00

     total cpu time spent up to now is      495.7 secs

     total energy              =   -9059.76576194 Ry
     estimated scf accuracy    <      13.98493228 Ry

     iteration #  6     ecut=    60.00 Ry     beta= 0.70
     Davidson diagonalization with overlap
     ethr =  4.20E-04,  avg # of iterations =  2.0

     negative rho (up, down):  1.057E-03 0.000E+00

     total cpu time spent up to now is      548.5 secs

     total energy              =   -9056.36134570 Ry
[...]
     atom  233 type  1   force =     0.00000019    0.00000008   -0.00000055
     atom  234 type  1   force =     0.00000003    0.00000015   -0.00000018
     atom  235 type  1   force =     0.00000040   -0.00000012   -0.00000004
     atom  236 type  1   force =     0.00000031   -0.00000058   -0.00000077
     atom  237 type  1   force =     0.00000005   -0.00000062   -0.00000017
     atom  238 type  1   force =     0.00000028   -0.00000016    0.00000044
     atom  239 type  1   force =     0.00000037   -0.00000001    0.00000013
     atom  240 type  1   force =     0.00000020   -0.00000014    0.00000010
     atom  241 type  1   force =    -0.00000006   -0.00000016   -0.00000047
     atom  242 type  1   force =    -0.00000013    0.00000012   -0.00000037
     atom  243 type  1   force =    -0.00000014   -0.00000064    0.00000014
     atom  244 type  1   force =     0.00000001    0.00000045   -0.00000029
     atom  245 type  1   force =     0.00000010    0.00000016   -0.00000003
     atom  246 type  1   force =    -0.00000009   -0.00000075    0.00000066
     atom  247 type  1   force =    -0.00000013    0.00000064    0.00000066
     atom  248 type  1   force =     0.00000002    0.00000015   -0.00000011
     atom  249 type  1   force =    -0.00000006    0.00000006   -0.00000065
     atom  250 type  1   force =     0.00000005   -0.00000011    0.00000050
     atom  251 type  1   force =    -0.00000025    0.00000019    0.00000045
     atom  252 type  1   force =     0.00000032    0.00000005    0.00000044
     atom  253 type  1   force =     0.00000006    0.00000024   -0.00000045
     atom  254 type  1   force =    -0.00000002   -0.00000010   -0.00000034
     atom  255 type  1   force =     0.00000004    0.00000017   -0.00000033
     atom  256 type  1   force =     0.00000008    0.00000003   -0.00000034
     atom  257 type  1   force =    -0.00000013   -0.00000015   -0.00000012
     atom  258 type  1   force =    -0.00000004   -0.00000014   -0.00000046
     atom  259 type  1   force =    -0.00000016   -0.00000030   -0.00000025
     atom  260 type  1   force =     0.00000006    0.00000000   -0.00000029
     atom  261 type  1   force =    -0.00000017   -0.00000022    0.00000035
     atom  262 type  1   force =     0.00000073   -0.00000010   -0.00000033
     atom  263 type  1   force =    -0.00000018   -0.00000007    0.00000047
     atom  264 type  1   force =    -0.00000011   -0.00000000    0.00000009
     atom  265 type  1   force =    -0.00000012   -0.00000032   -0.00000006
     atom  266 type  1   force =    -0.00000066   -0.00000087    0.00000028
     atom  267 type  1   force =    -0.00000030    0.00000009    0.00000016
     atom  268 type  1   force =     0.00000015    0.00000016    0.00000007
     atom  269 type  1   force =     0.00000030   -0.00000071    0.00000017
     atom  270 type  1   force =     0.00000085    0.00000018    0.00000013
     atom  271 type  1   force =    -0.00000008   -0.00000041   -0.00000016
     atom  272 type  1   force =     0.00000024   -0.00000037    0.00000013
     atom  273 type  1   force =     0.00000030   -0.00000040   -0.00000017
     atom  274 type  1   force =    -0.00000040    0.00000003   -0.00000012
     atom  275 type  1   force =    -0.00000031   -0.00000066   -0.00000004
     atom  276 type  1   force =    -0.00000072    0.00000032   -0.00000002
     atom  277 type  1   force =     0.00000014    0.00000015   -0.00000010
     atom  278 type  1   force =    -0.00000003    0.00000022   -0.00000017
     atom  279 type  1   force =     0.00000052   -0.00000009   -0.00000028
     atom  280 type  1   force =     0.00000067    0.00000003   -0.00000011
     atom  281 type  1   force =    -0.00000016    0.00000021   -0.00000000
     atom  282 type  1   force =    -0.00000005    0.00000004   -0.00000018
     atom  283 type  1   force =     0.00000086    0.00000013    0.00000018
     atom  284 type  1   force =     0.00000010   -0.00000004   -0.00000007
     atom  285 type  1   force =    -0.00000105    0.00000018   -0.00000020
     atom  286 type  1   force =    -0.00000013   -0.00000007    0.00000026
     atom  287 type  1   force =     0.00000020    0.00000007    0.00000029
     atom  288 type  1   force =     0.00000002    0.00000013    0.00000002
     atom  289 type  1   force =     0.00000026   -0.00000012   -0.00000053
     atom  290 type  1   force =     0.00000026   -0.00000013   -0.00000032
     atom  291 type  1   force =     0.00000015   -0.00000032   -0.00000015
     atom  292 type  1   force =     0.00000021   -0.00000009   -0.00000031
     atom  293 type  1   force =     0.00000013   -0.00000019    0.00000010
     atom  294 type  1   force =     0.00000125   -0.00000016   -0.00000019
     atom  295 type  1   force =    -0.00000001   -0.00000020    0.00000009
     atom  296 type  1   force =     0.00000012    0.00000003   -0.00000026
     atom  297 type  1   force =     0.00000002   -0.00000016    0.00000043
     atom  298 type  1   force =     0.00000031   -0.00000045   -0.00000012
     atom  299 type  1   force =     0.00000021   -0.00000014   -0.00000043
     atom  300 type  1   force =     0.00000017   -0.00000005    0.00000028
     atom  301 type  1   force =     0.00000016    0.00000014   -0.00000016
     atom  302 type  1   force =     0.00000001    0.00000023   -0.00000028
     atom  303 type  1   force =     0.00000018    0.00000012   -0.00000053
     atom  304 type  1   force =     0.00000027    0.00000011   -0.00000050
     atom  305 type  1   force =     0.00000000   -0.00000073   -0.00000013
     atom  306 type  1   force =    -0.00000019   -0.00000010   -0.00000052
     atom  307 type  1   force =    -0.00000016   -0.00000060   -0.00000030
     atom  308 type  1   force =     0.00000001   -0.00000004   -0.00000025
     atom  309 type  1   force =     0.00000006    0.00000020   -0.00000054
     atom  310 type  1   force =    -0.00000008   -0.00000025    0.00000068
     atom  311 type  1   force =    -0.00000007    0.00000018    0.00000009
     atom  312 type  1   force =    -0.00000003   -0.00000021    0.00000020
     atom  313 type  1   force =     0.00000057   -0.00000061   -0.00000096
     atom  314 type  1   force =    -0.00000085   -0.00000017    0.00000142
     atom  315 type  1   force =     0.00000037    0.00000015   -0.00000047
     atom  316 type  1   force =    -0.00000031    0.00000023    0.00000036
     atom  317 type  1   force =     0.00000041    0.00000028    0.00000062
     atom  318 type  1   force =    -0.00000052    0.00000115    0.00000029
     atom  319 type  1   force =     0.00000001    0.00000011    0.00000045
     atom  320 type  1   force =     0.00000017   -0.00000151    0.00000060
     atom  321 type  1   force =     0.00000014    0.00000132    0.00000042
     atom  322 type  1   force =    -0.00000008   -0.00000028   -0.00000021
     atom  323 type  1   force =    -0.00000120    0.00000064    0.00000047
     atom  324 type  1   force =     0.00000022   -0.00000052   -0.00000159
     atom  325 type  1   force =    -0.00000022    0.00000021   -0.00000113
     atom  326 type  1   force =     0.00000067   -0.00000081    0.00000081
     atom  327 type  1   force =    -0.00000081    0.00000026   -0.00000092
     atom  328 type  1   force =    -0.00000033    0.00000217    0.00000092
     atom  329 type  3   force =    -0.00000079   -0.00000141    0.00000827
     atom  330 type  3   force =    -0.00000721   -0.00000443   -0.00000131
     atom  331 type  3   force =    -0.00000404   -0.00002484   -0.00000134
     atom  332 type  3   force =    -0.00000153   -0.00000815    0.00000022
     atom  333 type  3   force =     0.00000395    0.00001570   -0.00000727
     atom  334 type  3   force =     0.00000574    0.00000682    0.00000584
     atom  335 type  3   force =     0.00000177    0.00000753    0.00000161
     atom  336 type  3   force =     0.00000902    0.00000596    0.00000067
     atom  337 type  3   force =     0.00000281   -0.00000748   -0.00000449
     atom  338 type  3   force =     0.00000173   -0.00001474    0.00000398
     atom  339 type  3   force =     0.00000091    0.00000546   -0.00000907
     atom  340 type  3   force =     0.00000381   -0.00000440   -0.00000488
     atom  341 type  3   force =     0.00000204    0.00001525    0.00000563
     atom  342 type  3   force =    -0.00000499    0.00000138   -0.00000228
     atom  343 type  3   force =    -0.00000122    0.00001918    0.00000711
     atom  344 type  3   force =    -0.00000182   -0.00000991   -0.00000811
     atom  345 type  3   force =     0.00000094   -0.00000227   -0.00001654
     atom  346 type  3   force =     0.00000309   -0.00000078   -0.00001425
     atom  347 type  3   force =    -0.00000206   -0.00000267   -0.00001049
     atom  348 type  3   force =    -0.00000301   -0.00000164   -0.00001238
     atom  349 type  3   force =    -0.00000544    0.00000661    0.00001869
     atom  350 type  3   force =    -0.00000149    0.00000285    0.00001374
     atom  351 type  3   force =    -0.00000024    0.00000063    0.00001738
     atom  352 type  3   force =    -0.00000189    0.00000484    0.00001229
     atom  353 type  3   force =    -0.00001114    0.00000241    0.00000112
     atom  354 type  3   force =    -0.00000140    0.00000219   -0.00001391
     atom  355 type  3   force =     0.00000092    0.00000313   -0.00001613
     atom  356 type  3   force =    -0.00000102    0.00000218   -0.00000740
     atom  357 type  3   force =    -0.00000237   -0.00000222    0.00000766
     atom  358 type  3   force =     0.00000240   -0.00000753    0.00000408
     atom  359 type  3   force =    -0.00000486   -0.00000429    0.00001198
     atom  360 type  3   force =    -0.00000449    0.00000048    0.00000045
     atom  361 type  3   force =    -0.00000683    0.00000300   -0.00000270
     atom  362 type  3   force =    -0.00001555    0.00000145   -0.00000159
     atom  363 type  3   force =    -0.00001142   -0.00000156   -0.00000393
     atom  364 type  3   force =    -0.00001931   -0.00000261   -0.00000249
     atom  365 type  3   force =     0.00000241    0.00000161    0.00000556
     atom  366 type  3   force =     0.00002223    0.00000066    0.00000045
     atom  367 type  3   force =     0.00000450    0.00000455    0.00000301
     atom  368 type  3   force =     0.00001176   -0.00000143    0.00000744
     atom  369 type  3   force =    -0.00001632    0.00000335   -0.00000054
     atom  370 type  3   force =    -0.00002094    0.00001323    0.00000175
     atom  371 type  3   force =    -0.00002218    0.00000199    0.00000402
     atom  372 type  3   force =    -0.00000101   -0.00000502    0.00000169
     atom  373 type  3   force =     0.00001910   -0.00000026   -0.00000212
     atom  374 type  3   force =    -0.00000396   -0.00000966   -0.00000414
     atom  375 type  3   force =     0.00001961    0.00000386   -0.00000501
     atom  376 type  3   force =     0.00002730    0.00000187   -0.00000217
     atom  377 type  3   force =    -0.00000762   -0.00000273    0.00000402
     atom  378 type  3   force =    -0.00001270   -0.00000509   -0.00000649
     atom  379 type  3   force =    -0.00001552   -0.00000275    0.00000255
     atom  380 type  3   force =    -0.00000347   -0.00000178    0.00000353
     atom  381 type  3   force =     0.00001437    0.00000634   -0.00000592
     atom  382 type  3   force =     0.00000518    0.00000427    0.00000243
     atom  383 type  3   force =     0.00000846    0.00000386    0.00000596
     atom  384 type  3   force =     0.00000779    0.00000471   -0.00000065
     atom  385 type  3   force =    -0.00000985   -0.00000520    0.00000133
     atom  386 type  3   force =    -0.00000621    0.00000171   -0.00000215
     atom  387 type  3   force =    -0.00002182    0.00000274    0.00000717
     atom  388 type  3   force =     0.00000135    0.00000362   -0.00000416
     atom  389 type  3   force =     0.00000466   -0.00000575   -0.00000417
     atom  390 type  3   force =     0.00001488   -0.00000141    0.00000133
     atom  391 type  3   force =    -0.00000228    0.00000104   -0.00000608
     atom  392 type  3   force =     0.00000280   -0.00000123   -0.00000318
     atom  393 type  3   force =    -0.00000440    0.00001228    0.00000393
     atom  394 type  3   force =    -0.00000335   -0.00000077   -0.00001542
     atom  395 type  3   force =    -0.00000388   -0.00000019   -0.00000924
     atom  396 type  3   force =    -0.00000001   -0.00000226   -0.00001348
     atom  397 type  3   force =     0.00000497   -0.00000099    0.00000310
     atom  398 type  3   force =     0.00000329   -0.00000188    0.00002394
     atom  399 type  3   force =     0.00000253    0.00000370    0.00000211
     atom  400 type  3   force =     0.00000759   -0.00000007    0.00000973
     atom  401 type  3   force =     0.00000420    0.00000168   -0.00002021
     atom  402 type  3   force =     0.00000397   -0.00000590    0.00000403
     atom  403 type  3   force =     0.00000216   -0.00000201   -0.00000263
     atom  404 type  3   force =     0.00000353    0.00000304   -0.00002067
     atom  405 type  3   force =     0.00000074    0.00000383    0.00001375
     atom  406 type  3   force =     0.00000038    0.00001036    0.00002049
     atom  407 type  3   force =    -0.00000226    0.00000221    0.00002631
     atom  408 type  3   force =    -0.00000038   -0.00000628   -0.00000440
     atom  409 type  3   force =    -0.00000240   -0.00001950   -0.00000320
     atom  410 type  3   force =     0.00000295   -0.00001119   -0.00000090
     atom  411 type  3   force =     0.00000083   -0.00001512   -0.00000061
     atom  412 type  3   force =    -0.00000175   -0.00002217   -0.00000154
     atom  413 type  3   force =    -0.00000651    0.00001756    0.00000633
     atom  414 type  3   force =     0.00000360    0.00001179    0.00000132
     atom  415 type  3   force =    -0.00000369    0.00002203    0.00000354
     atom  416 type  3   force =    -0.00000099    0.00001142    0.00000499
     atom  417 type  3   force =    -0.00000484   -0.00000293    0.00000249
     atom  418 type  3   force =    -0.00000184    0.00000300    0.00000872
     atom  419 type  3   force =    -0.00000454   -0.00001595    0.00000443
     atom  420 type  3   force =     0.00000159   -0.00001124    0.00000261
     atom  421 type  3   force =    -0.00000338    0.00001232    0.00000050
     atom  422 type  3   force =    -0.00000301    0.00000783   -0.00000335
     atom  423 type  3   force =     0.00000317    0.00001081   -0.00000398
     atom  424 type  3   force =    -0.00000572    0.00000170   -0.00000270
     atom  425 type  3   force =     0.00000829   -0.00000786   -0.00000752
     atom  426 type  3   force =    -0.00000565   -0.00000186    0.00000889
     atom  427 type  3   force =    -0.00000456    0.00000967    0.00000562
     atom  428 type  3   force =     0.00000276    0.00000015    0.00000175
     atom  429 type  3   force =     0.00000441    0.00000119    0.00000527
     atom  430 type  3   force =    -0.00001033    0.00001353    0.00000108
     atom  431 type  3   force =     0.00000023    0.00000498    0.00000238
     atom  432 type  3   force =     0.00000177   -0.00001154    0.00000303
     atom  433 type  3   force =     0.00000270    0.00001028    0.00000136
     atom  434 type  3   force =    -0.00000041   -0.00000170   -0.00000011
     atom  435 type  3   force =    -0.00000982    0.00000179    0.00000977
     atom  436 type  3   force =     0.00000424   -0.00000299   -0.00001307
     atom  437 type  3   force =     0.00000008    0.00000093   -0.00000671
     atom  438 type  3   force =    -0.00000166   -0.00001405   -0.00000030
     atom  439 type  3   force =    -0.00000713    0.00000076   -0.00000882
     atom  440 type  3   force =    -0.00000339    0.00001350    0.00000938
     atom  441 type  3   force =     0.00000026    0.00000347   -0.00000061
     atom  442 type  3   force =    -0.00000155   -0.00001007   -0.00000182
     atom  443 type  3   force =     0.00000305   -0.00000044   -0.00000579
     atom  444 type  3   force =    -0.00000806    0.00001168    0.00000697
     atom  445 type  3   force =    -0.00000243    0.00000713    0.00000204
     atom  446 type  3   force =     0.00000178   -0.00000152   -0.00000453
     atom  447 type  3   force =     0.00000416    0.00000010    0.00000835
     atom  448 type  3   force =    -0.00000442   -0.00000482   -0.00000979
     atom  449 type  3   force =    -0.00000350    0.00000124    0.00000524
     atom  450 type  3   force =    -0.00000178    0.00000730    0.00000019
     atom  451 type  3   force =     0.00000272    0.00000037    0.00000144
     atom  452 type  3   force =    -0.00000232   -0.00000904   -0.00000002
     atom  453 type  3   force =    -0.00000876    0.00000151   -0.00000328
     atom  454 type  3   force =     0.00000606   -0.00000548    0.00000935
     atom  455 type  3   force =    -0.00000085    0.00000961    0.00000361
     atom  456 type  3   force =     0.00000334   -0.00000161    0.00000254

     Total force =     1.930106     Total SCF correction =     0.000225


     Computing stress (Cartesian axis) and pressure


     negative rho (up, down):  1.739E-03 0.000E+00
          total   stress  (Ry/bohr**3)                   (kbar)     P=       24.17
   0.00018040  -0.00001422   0.00000689           26.54       -2.09        1.01
  -0.00001422   0.00015391   0.00000179           -2.09       22.64        0.26
   0.00000689   0.00000179   0.00015856            1.01        0.26       23.32

     kinetic stress (kbar)   7300.47      5.78     -3.77
                                5.78   7296.90     -7.84
                               -3.77     -7.84   7292.75

     local   stress (kbar) -24076.13    235.34   -104.35
                              235.34 -24309.64   -747.08
                             -104.35   -747.08 -24466.28

     nonloc. stress (kbar)   1263.78     -0.44      0.56
                               -0.44   1263.31     -0.35
                                0.56     -0.35   1264.24

     hartree stress (kbar)  11667.26    -88.90     32.25
                              -88.90  11774.13    334.46
                               32.25    334.46  11839.59

     exc-cor stress (kbar)   -610.28     -0.45      0.31
                               -0.45   -610.18      0.49
                                0.31      0.49   -610.01

     corecor stress (kbar)  -1015.04      0.20     -0.14
                                0.20  -1014.98     -0.12
                               -0.14     -0.12  -1015.11

     ewald   stress (kbar)   5496.48   -153.62     76.16
                             -153.62   5623.11    420.72
                               76.16    420.72   5718.14

     hubbard stress (kbar)      0.00      0.00      0.00
                                0.00      0.00      0.00
                                0.00      0.00      0.00

     DFT-D   stress (kbar)      0.00      0.00      0.00
                                0.00      0.00      0.00
                                0.00      0.00      0.00

     XDM     stress (kbar)      0.00      0.00      0.00
                                0.00      0.00      0.00
                                0.00      0.00      0.00

     dft-nl  stress (kbar)      0.00      0.00      0.00
                                0.00      0.00      0.00
                                0.00      0.00      0.00

     TS-vdW  stress (kbar)      0.00      0.00      0.00
                                0.00      0.00      0.00
                                0.00      0.00      0.00



     Writing output data file ./UiO-66Zr/pwscf.save/

 %%%%%%%%%%%%%%%%%%%%%%%%%%%%%%%%%%%%%%%%%%%%%%%%%%%%%%%%%%%%%%%%%%%%%%%%%%%%%%
     Error in routine create_directory: (122):
     ./UiO-66Zr/pwscf.save/ non existent or non writable
 %%%%%%%%%%%%%%%%%%%%%%%%%%%%%%%%%%%%%%%%%%%%%%%%%%%%%%%%%%%%%%%%%%%%%%%%%%%%%%

     stopping ...
