cpu-bind=MASK - cn855, task  2  2 [230523]: mask 0x2000002 set
cpu-bind=MASK - cn855, task  3  3 [230524]: mask 0x2000002000 set
cpu-bind=MASK - cn855, task  5  5 [230526]: mask 0x4000004000 set
cpu-bind=MASK - cn855, task  7  7 [230528]: mask 0x8000008000 set
cpu-bind=MASK - cn855, task  9  9 [230530]: mask 0x10000010000 set
cpu-bind=MASK - cn855, task 10 10 [230531]: mask 0x20000020 set
cpu-bind=MASK - cn855, task  4  4 [230525]: mask 0x4000004 set
cpu-bind=MASK - cn855, task  6  6 [230527]: mask 0x8000008 set
cpu-bind=MASK - cn855, task 14 14 [230535]: mask 0x80000080 set
cpu-bind=MASK - cn855, task 17 17 [230538]: mask 0x100000100000 set
cpu-bind=MASK - cn855, task  0  0 [230521]: mask 0x40000001 set
cpu-bind=MASK - cn855, task 16 16 [230537]: mask 0x100000100 set
cpu-bind=MASK - cn855, task 18 18 [230539]: mask 0x200000200 set
cpu-bind=MASK - cn855, task  1  1 [230522]: mask 0x1000001000 set
cpu-bind=MASK - cn855, task 11 11 [230532]: mask 0x20000020000 set
cpu-bind=MASK - cn855, task 13 13 [230534]: mask 0x40000040000 set
cpu-bind=MASK - cn855, task 21 21 [230542]: mask 0x400000400000 set
cpu-bind=MASK - cn855, task 23 23 [230544]: mask 0x800000800000 set
cpu-bind=MASK - cn855, task 15 15 [230536]: mask 0x80000080000 set
cpu-bind=MASK - cn855, task  8  8 [230529]: mask 0x10000010 set
cpu-bind=MASK - cn855, task 22 22 [230543]: mask 0x800000800 set
cpu-bind=MASK - cn855, task 12 12 [230533]: mask 0x1000040 set
cpu-bind=MASK - cn855, task 19 19 [230540]: mask 0x200000200000 set
cpu-bind=MASK - cn855, task 20 20 [230541]: mask 0x400000400 set
 DBCSR| CPU Multiplication driver                                           XSMM
 DBCSR| Multrec recursion limit                                              512
 DBCSR| Multiplication stack size                                           1000
 DBCSR| Maximum elements for images                                    UNLIMITED
 DBCSR| Multiplicative factor virtual images                                   1
 DBCSR| Use multiplication densification                                       T
 DBCSR| Multiplication size stacks                                             3
 DBCSR| Use memory pool for CPU allocation                                     F
 DBCSR| Number of 3D layers                                               SINGLE
 DBCSR| Use MPI memory allocation                                              F
 DBCSR| Use RMA algorithm                                                      F
 DBCSR| Use Communication thread                                               T
 DBCSR| Communication thread load                                             87
 DBCSR| MPI: My node id                                                        0
 DBCSR| MPI: Number of nodes                                                  24
 DBCSR| OMP: Current number of threads                                         1
 DBCSR| OMP: Max number of threads                                             1
 DBCSR| Split modifier for TAS multiplication algorithm                  1.0E+00


  **** **** ******  **  PROGRAM STARTED AT               2021-08-02 16:37:06.700
 ***** ** ***  *** **   PROGRAM STARTED ON                  cn855.scarf.rl.ac.uk
 **    ****   ******    PROGRAM STARTED BY                              
 ***** **    ** ** **   PROGRAM PROCESS ID                                230521
  **** **  *******  **  PROGRAM STARTED IN

 CP2K| version string:                                          CP2K version 8.1
 CP2K| source code revision number:                                  git:0b61f2f
 CP2K| cp2kflags: omp libint fftw3 libxc parallel mpi3 scalapack xsmm plumed2   
 CP2K| is freely available from                            https://www.cp2k.org/
 CP2K| Program compiled at                          Fri 25 Jun 13:02:29 BST 2021
 CP2K| Program compiled on                                  cn855.scarf.rl.ac.uk
 CP2K| Program compiled for                                    Linux-x86-64-foss
 CP2K| Data directory path    /work3/cse/dlp/eb-ml/software/CP2K/8.1-foss-2020b/
 CP2K| Input file name        ../cp2k_input/cresol_n_0_cutoff_600_relcutoff_60.i

 GLOBAL| Force Environment number                                              1
 GLOBAL| Basis set file name
 GLOBAL| Potential file name
 GLOBAL| MM Potential file name                                     MM_POTENTIAL
 GLOBAL| Coordinate file name                       ../active_learning/xyz/0.xyz
 GLOBAL| Method name                                                        CP2K
 GLOBAL| Project name                         cresol_n_0_cutoff_600_relcutoff_60
 GLOBAL| Preferred FFT library                                             FFTW3
 GLOBAL| Preferred diagonalization lib.                                       SL
 GLOBAL| Run type                                                   ENERGY_FORCE
 GLOBAL| All-to-all communication in single precision                          F
 GLOBAL| FFTs using library dependent lengths                                  F
 GLOBAL| Global print level                                               MEDIUM
 GLOBAL| MPI I/O enabled                                                       T
 GLOBAL| Total number of message passing processes                            24
 GLOBAL| Number of threads for this process                                    1
 GLOBAL| This output is from process                                           0
 GLOBAL| CPU model name                 Intel(R) Xeon(R) Gold 6126 CPU @ 2.60GHz
 GLOBAL| CPUID                                                              1003

 MEMORY| system memory details [Kb]
 MEMORY|                        rank 0           min           max       average
 MEMORY| MemTotal            196503752     196503752     196503752     196503752
 MEMORY| MemFree             121957328     121949136     121965520     121954853
 MEMORY| Buffers                   152           152           152           152
 MEMORY| Cached               59711016      59711016      59711016      59711016
 MEMORY| Slab                  1073408       1073408       1073408       1073408
 MEMORY| SReclaimable           702240        702240        702240        702240
 MEMORY| MemLikelyFree       182370736     182362544     182378928     182368261


 *** Fundamental physical constants (SI units) ***

 *** Literature: B. J. Mohr and B. N. Taylor,
 ***             CODATA recommended values of the fundamental physical
 ***             constants: 2006, Web Version 5.1
 ***             http://physics.nist.gov/constants

 Speed of light in vacuum [m/s]                             2.99792458000000E+08
 Magnetic constant or permeability of vacuum [N/A**2]       1.25663706143592E-06
 Electric constant or permittivity of vacuum [F/m]          8.85418781762039E-12
 Planck constant (h) [J*s]                                  6.62606896000000E-34
 Planck constant (h-bar) [J*s]                              1.05457162825177E-34
 Elementary charge [C]                                      1.60217648700000E-19
 Electron mass [kg]                                         9.10938215000000E-31
 Electron g factor [ ]                                     -2.00231930436220E+00
 Proton mass [kg]                                           1.67262163700000E-27
 Fine-structure constant                                    7.29735253760000E-03
 Rydberg constant [1/m]                                     1.09737315685270E+07
 Avogadro constant [1/mol]                                  6.02214179000000E+23
 Boltzmann constant [J/K]                                   1.38065040000000E-23
 Atomic mass unit [kg]                                      1.66053878200000E-27
 Bohr radius [m]                                            5.29177208590000E-11

 *** Conversion factors ***

 [u] -> [a.u.]                                              1.82288848426455E+03
 [Angstrom] -> [Bohr] = [a.u.]                              1.88972613288564E+00
 [a.u.] = [Bohr] -> [Angstrom]                              5.29177208590000E-01
 [a.u.] -> [s]                                              2.41888432650478E-17
 [a.u.] -> [fs]                                             2.41888432650478E-02
 [a.u.] -> [J]                                              4.35974393937059E-18
 [a.u.] -> [N]                                              8.23872205491840E-08
 [a.u.] -> [K]                                              3.15774647902944E+05
 [a.u.] -> [kJ/mol]                                         2.62549961709828E+03
 [a.u.] -> [kcal/mol]                                       6.27509468713739E+02
 [a.u.] -> [Pa]                                             2.94210107994716E+13
 [a.u.] -> [bar]                                            2.94210107994716E+08
 [a.u.] -> [atm]                                            2.90362800883016E+08
 [a.u.] -> [eV]                                             2.72113838565563E+01
 [a.u.] -> [Hz]                                             6.57968392072181E+15
 [a.u.] -> [1/cm] (wave numbers)                            2.19474631370540E+05
 [a.u./Bohr**2] -> [1/cm]                                   5.14048714338585E+03
 

 CELL_TOP| Volume [angstrom^3]:                                      5579.545395
 CELL_TOP| Vector a [angstrom    17.736     0.000     0.000   |a| =    17.736433
 CELL_TOP| Vector b [angstrom     0.000    17.736     0.000   |b| =    17.736433
 CELL_TOP| Vector c [angstrom     0.000     0.000    17.736   |c| =    17.736433
 CELL_TOP| Angle (b,c), alpha [degree]:                                90.000000
 CELL_TOP| Angle (a,c), beta  [degree]:                                90.000000
 CELL_TOP| Angle (a,b), gamma [degree]:                                90.000000
 CELL_TOP| Requested initial symmetry:                                     CUBIC
 CELL_TOP| Numerically orthorhombic:                                         YES

 GENERATE|  Preliminary Number of Bonds generated:                             0
 GENERATE|  Achieved consistency in connectivity generation.

 CELL| Volume [angstrom^3]:                                          5579.545395
 CELL| Vector a [angstrom]:      17.736     0.000     0.000   |a| =    17.736433
 CELL| Vector b [angstrom]:       0.000    17.736     0.000   |b| =    17.736433
 CELL| Vector c [angstrom]:       0.000     0.000    17.736   |c| =    17.736433
 CELL| Angle (b,c), alpha [degree]:                                    90.000000
 CELL| Angle (a,c), beta  [degree]:                                    90.000000
 CELL| Angle (a,b), gamma [degree]:                                    90.000000
 CELL| Requested initial symmetry:                                         CUBIC
 CELL| Numerically orthorhombic:                                             YES

 CELL_REF| Volume [angstrom^3]:                                      5579.545395
 CELL_REF| Vector a [angstrom    17.736     0.000     0.000   |a| =    17.736433
 CELL_REF| Vector b [angstrom     0.000    17.736     0.000   |b| =    17.736433
 CELL_REF| Vector c [angstrom     0.000     0.000    17.736   |c| =    17.736433
 CELL_REF| Angle (b,c), alpha [degree]:                                90.000000
 CELL_REF| Angle (a,c), beta  [degree]:                                90.000000
 CELL_REF| Angle (a,b), gamma [degree]:                                90.000000
 CELL_REF| Requested initial symmetry:                                     CUBIC
 CELL_REF| Numerically orthorhombic:                                         YES

 *******************************************************************************
 *******************************************************************************
 **                                                                           **
 **     #####                         ##              ##                      **
 **    ##   ##            ##          ##              ##                      **
 **   ##     ##                       ##            ######                    **
 **   ##     ##  ##   ##  ##   #####  ##  ##   ####   ##    #####    #####    **
 **   ##     ##  ##   ##  ##  ##      ## ##   ##      ##   ##   ##  ##   ##   **
 **   ##  ## ##  ##   ##  ##  ##      ####     ###    ##   ######   ######    **
 **    ##  ###   ##   ##  ##  ##      ## ##      ##   ##   ##       ##        **
 **     #######   #####   ##   #####  ##  ##  ####    ##    #####   ##        **
 **           ##                                                    ##        **
 **                                                                           **
 **                                                ... make the atoms dance   **
 **                                                                           **
 **            Copyright (C) by CP2K developers group (2000 - 2020)           **
 **                      J. Chem. Phys. 152, 194103 (2020)                    **
 **                                                                           **
 *******************************************************************************

 DFT| Spin restricted Kohn-Sham (RKS) calculation                            RKS
 DFT| Multiplicity                                                             1
 DFT| Number of spin states                                                    1
 DFT| Charge                                                                   0
 DFT| Self-interaction correction (SIC)                                       NO
 DFT| Cutoffs: density                                              1.000000E-10
 DFT|          gradient                                             1.000000E-10
 DFT|          tau                                                  1.000000E-10
 DFT|          cutoff_smoothing_range                               0.000000E+00
 DFT| XC density smoothing                                                  NONE
 DFT| XC derivatives                                                          PW
 FUNCTIONAL| ROUTINE=NEW
 FUNCTIONAL| HCTH:
 FUNCTIONAL| A. D. Boese and N. C. Handy, J. Chem. Phys. 114, 5497 (2001);HCTH/4
 FUNCTIONAL| 07 xc functional {LDA version}                                     

 QS| Method:                                                                 GPW
 QS| Density plane wave grid type                        NON-SPHERICAL FULLSPACE
 QS| Number of grid levels:                                                    4
 QS| Density cutoff [a.u.]:                                                300.0
 QS| Multi grid cutoff [a.u.]: 1) grid level                               300.0
 QS|                           2) grid level                               100.0
 QS|                           3) grid level                                33.3
 QS|                           4) grid level                                11.1
 QS| Grid level progression factor:                                          3.0
 QS| Relative density cutoff [a.u.]:                                        30.0
 QS| Interaction thresholds: eps_pgf_orb:                                1.0E-05
 QS|                         eps_filter_matrix:                          0.0E+00
 QS|                         eps_core_charge:                            1.0E-12
 QS|                         eps_rho_gspace:                             1.0E-10
 QS|                         eps_rho_rspace:                             1.0E-10
 QS|                         eps_gvg_rspace:                             1.0E-05
 QS|                         eps_ppl:                                    1.0E-02
 QS|                         eps_ppnl:                                   1.0E-07


 BASIS SET INFORMATION (Unnormalised Gaussian-type functions)

  1. Atomic kind: O

     Orbital Basis Set                                     DZVP-MOLOPT-SR-GTH-q6

       Number of orbital shell sets:                                           1
       Number of orbital shells:                                               5
       Number of primitive Cartesian functions:                                5
       Number of Cartesian basis functions:                                   14
       Number of spherical basis functions:                                   13
       Norm type:                                                              2

     GTO basis set information for                         DZVP-MOLOPT-SR-GTH-q6

                        Set   Shell     n   l            Exponent    Coefficient

                          1       1     2   0           10.389228       0.520651
                                                         3.849621       0.274092
                                                         1.388401      -0.395945
                                                         0.496955      -0.359742
                                                         0.162492      -0.044206
                          1       2     3   0           10.389228       0.285465
                                                         3.849621       0.226496
                                                         1.388401      -0.294295
                                                         0.496955      -0.040473
                                                         0.162492       0.201160
                          1       3     3   1           10.389228      -1.629837
                                                         3.849621      -1.461054
                                                         1.388401      -0.811450
                                                         0.496955      -0.270176
                                                         0.162492      -0.037850
                          1       4     4   1           10.389228      -0.714198
                                                         3.849621      -0.048293
                                                         1.388401      -0.483010
                                                         0.496955       0.226199
                                                         0.162492       0.155011
                          1       5     4   2           10.389228       5.115236
                                                         3.849621       1.838028
                                                         1.388401       3.707431
                                                         0.496955       0.749292
                                                         0.162492       0.018134

  2. Atomic kind: C

     Orbital Basis Set                                     DZVP-MOLOPT-SR-GTH-q4

       Number of orbital shell sets:                                           1
       Number of orbital shells:                                               5
       Number of primitive Cartesian functions:                                5
       Number of Cartesian basis functions:                                   14
       Number of spherical basis functions:                                   13
       Norm type:                                                              2

     GTO basis set information for                         DZVP-MOLOPT-SR-GTH-q4

                        Set   Shell     n   l            Exponent    Coefficient

                          1       1     2   0            5.605331       0.289577
                                                         2.113016       0.191286
                                                         0.769911      -0.188271
                                                         0.348157      -0.197347
                                                         0.128212      -0.020461
                          1       2     3   0            5.605331       1.211211
                                                         2.113016       0.180008
                                                         0.769911       0.017202
                                                         0.348157       0.300246
                                                         0.128212       0.162925
                          1       3     3   1            5.605331      -0.797496
                                                         2.113016      -0.727979
                                                         0.769911      -0.424708
                                                         0.348157      -0.158329
                                                         0.128212      -0.031553
                          1       4     4   1            5.605331      -0.682016
                                                         2.113016      -0.784972
                                                         0.769911      -0.448848
                                                         0.348157       0.298865
                                                         0.128212       0.108036
                          1       5     4   2            5.605331       1.743650
                                                         2.113016       0.747288
                                                         0.769911       1.216994
                                                         0.348157       0.078119
                                                         0.128212       0.081160

  3. Atomic kind: H

     Orbital Basis Set                                     DZVP-MOLOPT-SR-GTH-q1

       Number of orbital shell sets:                                           1
       Number of orbital shells:                                               3
       Number of primitive Cartesian functions:                                5
       Number of Cartesian basis functions:                                    5
       Number of spherical basis functions:                                    5
       Norm type:                                                              2

     GTO basis set information for                         DZVP-MOLOPT-SR-GTH-q1

                        Set   Shell     n   l            Exponent    Coefficient

                          1       1     2   0           10.068468      -0.136633
                                                         2.680223      -0.182439
                                                         0.791502      -0.265433
                                                         0.239116      -0.110443
                                                         0.082193      -0.014399
                          1       2     3   0           10.068468       0.238456
                                                         2.680223       1.259012
                                                         0.791502      -0.691189
                                                         0.239116       0.012058
                                                         0.082193       0.057187
                          1       3     3   1           10.068468       0.253224
                                                         2.680223       0.598565
                                                         0.791502       0.507797
                                                         0.239116       0.130592
                                                         0.082193       0.054516


 ATOMIC KIND INFORMATION

  1. Atomic kind: O                                     Number of atoms:      32

     Orbital Basis Set                                     DZVP-MOLOPT-SR-GTH-q6

       Number of orbital shell sets:                                           1
       Number of orbital shells:                                               5
       Number of primitive Cartesian functions:                                5
       Number of Cartesian basis functions:                                   14
       Number of spherical basis functions:                                   13
       Norm type:                                                              2

       Normalised Cartesian orbitals:

                        Set   Shell   Orbital            Exponent    Coefficient

                          1       1    2s               10.389228       0.396646
                                                         3.849621       0.208811
                                                         1.388401      -0.301641
                                                         0.496955      -0.274061
                                                         0.162492      -0.033677

                          1       2    3s               10.389228       0.303673
                                                         3.849621       0.240943
                                                         1.388401      -0.313066
                                                         0.496955      -0.043055
                                                         0.162492       0.213991

                          1       3    3px              10.389228      -1.530415
                                                         3.849621      -1.371928
                                                         1.388401      -0.761951
                                                         0.496955      -0.253695
                                                         0.162492      -0.035541
                          1       3    3py              10.389228      -1.530415
                                                         3.849621      -1.371928
                                                         1.388401      -0.761951
                                                         0.496955      -0.253695
                                                         0.162492      -0.035541
                          1       3    3pz              10.389228      -1.530415
                                                         3.849621      -1.371928
                                                         1.388401      -0.761951
                                                         0.496955      -0.253695
                                                         0.162492      -0.035541

                          1       4    4px              10.389228      -0.565392
                                                         3.849621      -0.038231
                                                         1.388401      -0.382373
                                                         0.496955       0.179070
                                                         0.162492       0.122714
                          1       4    4py              10.389228      -0.565392
                                                         3.849621      -0.038231
                                                         1.388401      -0.382373
                                                         0.496955       0.179070
                                                         0.162492       0.122714
                          1       4    4pz              10.389228      -0.565392
                                                         3.849621      -0.038231
                                                         1.388401      -0.382373
                                                         0.496955       0.179070
                                                         0.162492       0.122714

                          1       5    4dx2             10.389228       1.867377
                                                         3.849621       0.670994
                                                         1.388401       1.353441
                                                         0.496955       0.273538
                                                         0.162492       0.006620
                          1       5    4dxy             10.389228       3.234392
                                                         3.849621       1.162195
                                                         1.388401       2.344229
                                                         0.496955       0.473781
                                                         0.162492       0.011466
                          1       5    4dxz             10.389228       3.234392
                                                         3.849621       1.162195
                                                         1.388401       2.344229
                                                         0.496955       0.473781
                                                         0.162492       0.011466
                          1       5    4dy2             10.389228       1.867377
                                                         3.849621       0.670994
                                                         1.388401       1.353441
                                                         0.496955       0.273538
                                                         0.162492       0.006620
                          1       5    4dyz             10.389228       3.234392
                                                         3.849621       1.162195
                                                         1.388401       2.344229
                                                         0.496955       0.473781
                                                         0.162492       0.011466
                          1       5    4dz2             10.389228       1.867377
                                                         3.849621       0.670994
                                                         1.388401       1.353441
                                                         0.496955       0.273538
                                                         0.162492       0.006620

     GTH Potential information for                                GTH-HCTH407-q6

       Description:                       Goedecker-Teter-Hutter pseudopotential
                                           Goedecker et al., PRB 54, 1703 (1996)
                                          Hartwigsen et al., PRB 58, 3641 (1998)
                                                      Krack, TCA 114, 145 (2005)

       Gaussian exponent of the core charge distribution:               8.239210
       Electronic configuration (s p d ...):                               2   4

       Parameters of the local part of the GTH pseudopotential:

                          rloc        C1          C2          C3          C4
                        0.246344  -16.398079    2.456347

       Parameters of the non-local part of the GTH pseudopotential:

                   l      r(l)      h(i,j,l)

                   0    0.221011   18.297548
                   1    0.214413

  2. Atomic kind: C                                     Number of atoms:     224

     Orbital Basis Set                                     DZVP-MOLOPT-SR-GTH-q4

       Number of orbital shell sets:                                           1
       Number of orbital shells:                                               5
       Number of primitive Cartesian functions:                                5
       Number of Cartesian basis functions:                                   14
       Number of spherical basis functions:                                   13
       Norm type:                                                              2

       Normalised Cartesian orbitals:

                        Set   Shell   Orbital            Exponent    Coefficient

                          1       1    2s                5.605331       0.322515
                                                         2.113016       0.213043
                                                         0.769911      -0.209686
                                                         0.348157      -0.219794
                                                         0.128212      -0.022789

                          1       2    3s                5.605331       0.552234
                                                         2.113016       0.082072
                                                         0.769911       0.007843
                                                         0.348157       0.136893
                                                         0.128212       0.074283

                          1       3    3px               5.605331      -0.703879
                                                         2.113016      -0.642521
                                                         0.769911      -0.374851
                                                         0.348157      -0.139743
                                                         0.128212      -0.027849
                          1       3    3py               5.605331      -0.703879
                                                         2.113016      -0.642521
                                                         0.769911      -0.374851
                                                         0.348157      -0.139743
                                                         0.128212      -0.027849
                          1       3    3pz               5.605331      -0.703879
                                                         2.113016      -0.642521
                                                         0.769911      -0.374851
                                                         0.348157      -0.139743
                                                         0.128212      -0.027849

                          1       4    4px               5.605331      -0.480376
                                                         2.113016      -0.552894
                                                         0.769911      -0.316145
                                                         0.348157       0.210505
                                                         0.128212       0.076095
                          1       4    4py               5.605331      -0.480376
                                                         2.113016      -0.552894
                                                         0.769911      -0.316145
                                                         0.348157       0.210505
                                                         0.128212       0.076095
                          1       4    4pz               5.605331      -0.480376
                                                         2.113016      -0.552894
                                                         0.769911      -0.316145
                                                         0.348157       0.210505
                                                         0.128212       0.076095

                          1       5    4dx2              5.605331       0.640026
                                                         2.113016       0.274300
                                                         0.769911       0.446711
                                                         0.348157       0.028674
                                                         0.128212       0.029790
                          1       5    4dxy              5.605331       1.108557
                                                         2.113016       0.475102
                                                         0.769911       0.773726
                                                         0.348157       0.049666
                                                         0.128212       0.051599
                          1       5    4dxz              5.605331       1.108557
                                                         2.113016       0.475102
                                                         0.769911       0.773726
                                                         0.348157       0.049666
                                                         0.128212       0.051599
                          1       5    4dy2              5.605331       0.640026
                                                         2.113016       0.274300
                                                         0.769911       0.446711
                                                         0.348157       0.028674
                                                         0.128212       0.029790
                          1       5    4dyz              5.605331       1.108557
                                                         2.113016       0.475102
                                                         0.769911       0.773726
                                                         0.348157       0.049666
                                                         0.128212       0.051599
                          1       5    4dz2              5.605331       0.640026
                                                         2.113016       0.274300
                                                         0.769911       0.446711
                                                         0.348157       0.028674
                                                         0.128212       0.029790

     GTH Potential information for                                GTH-HCTH407-q4

       Description:                       Goedecker-Teter-Hutter pseudopotential
                                           Goedecker et al., PRB 54, 1703 (1996)
                                          Hartwigsen et al., PRB 58, 3641 (1998)
                                                      Krack, TCA 114, 145 (2005)

       Gaussian exponent of the core charge distribution:               4.351983
       Electronic configuration (s p d ...):                               2   2

       Parameters of the local part of the GTH pseudopotential:

                          rloc        C1          C2          C3          C4
                        0.338954   -8.640704    1.357625

       Parameters of the non-local part of the GTH pseudopotential:

                   l      r(l)      h(i,j,l)

                   0    0.302362    9.596812
                   1    0.291593

  3. Atomic kind: H                                     Number of atoms:     256

     Orbital Basis Set                                     DZVP-MOLOPT-SR-GTH-q1

       Number of orbital shell sets:                                           1
       Number of orbital shells:                                               3
       Number of primitive Cartesian functions:                                5
       Number of Cartesian basis functions:                                    5
       Number of spherical basis functions:                                    5
       Norm type:                                                              2

       Normalised Cartesian orbitals:

                        Set   Shell   Orbital            Exponent    Coefficient

                          1       1    2s               10.068468      -0.133023
                                                         2.680223      -0.177618
                                                         0.791502      -0.258419
                                                         0.239116      -0.107525
                                                         0.082193      -0.014019

                          1       2    3s               10.068468       0.344673
                                                         2.680223       1.819821
                                                         0.791502      -0.999069
                                                         0.239116       0.017430
                                                         0.082193       0.082660

                          1       3    3px              10.068468       0.155326
                                                         2.680223       0.367157
                                                         0.791502       0.311480
                                                         0.239116       0.080105
                                                         0.082193       0.033440
                          1       3    3py              10.068468       0.155326
                                                         2.680223       0.367157
                                                         0.791502       0.311480
                                                         0.239116       0.080105
                                                         0.082193       0.033440
                          1       3    3pz              10.068468       0.155326
                                                         2.680223       0.367157
                                                         0.791502       0.311480
                                                         0.239116       0.080105
                                                         0.082193       0.033440

     GTH Potential information for                                GTH-HCTH407-q1

       Description:                       Goedecker-Teter-Hutter pseudopotential
                                           Goedecker et al., PRB 54, 1703 (1996)
                                          Hartwigsen et al., PRB 58, 3641 (1998)
                                                      Krack, TCA 114, 145 (2005)

       Gaussian exponent of the core charge distribution:              12.500000
       Electronic configuration (s p d ...):                                   1

       Parameters of the local part of the GTH pseudopotential:

                          rloc        C1          C2          C3          C4
                        0.200000   -4.178554    0.725951


 MOLECULE KIND INFORMATION


 All atoms are their own molecule, skipping detailed information


 TOTAL NUMBERS AND MAXIMUM NUMBERS

  Total number of            - Atomic kinds:                                   3
                             - Atoms:                                        512
                             - Shell sets:                                   512
                             - Shells:                                      2048
                             - Primitive Cartesian functions:               2560
                             - Cartesian basis functions:                   4864
                             - Spherical basis functions:                   4608

  Maximum angular momentum of- Orbital basis functions:                        2
                             - Local part of the GTH pseudopotential:          2
                             - Non-local part of the GTH pseudopotential:      0


 MODULE QUICKSTEP:  ATOMIC COORDINATES IN angstrom

  Atom  Kind  Element       X           Y           Z          Z(eff)       Mass

       1     1 O    8   14.084081    5.043855    2.344030      6.0000      15.9994
       2     2 C    6   12.892781    4.554747    5.729420      4.0000      12.0107
       3     2 C    6   13.335983    4.284078    4.450230      4.0000      12.0107
       4     2 C    6   12.729181    5.886909    6.119022      4.0000      12.0107
       5     2 C    6   13.597682    5.371516    3.589671      4.0000      12.0107
       6     2 C    6   12.770885    3.486137    6.739921      4.0000      12.0107
       7     2 C    6   12.871683    6.897314    5.223807      4.0000      12.0107
       8     2 C    6   13.353985    6.670075    3.989411      4.0000      12.0107
       9     3 H    1   13.344682    3.261914    4.093151      1.0000       1.0079
      10     3 H    1   12.351782    5.995639    7.107350      1.0000       1.0079
      11     3 H    1   11.999683    3.602779    7.552880      1.0000       1.0079
      12     3 H    1   12.547181    2.504138    6.259190      1.0000       1.0079
      13     3 H    1   13.694183    3.262004    7.293599      1.0000       1.0079
      14     3 H    1   12.681883    7.909027    5.543758      1.0000       1.0079
      15     3 H    1   13.601984    7.398239    3.276520      1.0000       1.0079
      16     3 H    1   14.817081    5.704295    2.153431      1.0000       1.0079
      17     1 O    8    7.370065    1.333826    2.721598      6.0000      15.9994
      18     2 C    6    8.098414    4.541528    4.410991      4.0000      12.0107
      19     2 C    6    7.532951    3.264084    4.226139      4.0000      12.0107
      20     2 C    6    9.210522    4.871994    3.644991      4.0000      12.0107
      21     2 C    6    8.044570    2.467477    3.149332      4.0000      12.0107
      22     2 C    6    7.495793    5.360906    5.521337      4.0000      12.0107
      23     2 C    6    9.742340    4.013838    2.669591      4.0000      12.0107
      24     2 C    6    9.075773    2.886267    2.312528      4.0000      12.0107
      25     3 H    1    6.738995    2.871927    4.845192      1.0000       1.0079
      26     3 H    1    9.795803    5.806167    3.757399      1.0000       1.0079
      27     3 H    1    8.211775    6.004455    6.098579      1.0000       1.0079
      28     3 H    1    6.852086    6.123054    5.126571      1.0000       1.0079
      29     3 H    1    6.970701    4.793449    6.274139      1.0000       1.0079
      30     3 H    1   10.690181    4.246607    2.180567      1.0000       1.0079
      31     3 H    1    9.459834    2.250038    1.453737      1.0000       1.0079
      32     3 H    1    6.851752    1.068787    3.468309      1.0000       1.0079
      33     1 O    8   16.814381    3.746175   12.675030      6.0000      15.9994
      34     2 C    6   16.121085    6.007095    9.724269      4.0000      12.0107
      35     2 C    6   16.658284    5.530455   10.990431      4.0000      12.0107
      36     2 C    6   14.906882    5.408046    9.373419      4.0000      12.0107
      37     2 C    6   16.140881    4.395169   11.613527      4.0000      12.0107
      38     2 C    6   16.835585    6.890197    8.738539      4.0000      12.0107
      39     2 C    6   14.310881    4.421315   10.063932      4.0000      12.0107
      40     2 C    6   14.886985    3.896604   11.214130      4.0000      12.0107
      41     3 H    1   17.559785    5.843479   11.395432      1.0000       1.0079
      42     3 H    1   14.540882    5.835335    8.485597      1.0000       1.0079
      43     3 H    1   16.941484    7.947567    9.063379      1.0000       1.0079
      44     3 H    1    0.177372    6.543824    8.593052      1.0000       1.0079
      45     3 H    1   16.274282    6.918349    7.826571      1.0000       1.0079
      46     3 H    1   13.366183    3.997106    9.807932      1.0000       1.0079
      47     3 H    1   14.380483    3.199667   11.886630      1.0000       1.0079
      48     3 H    1   17.506783    4.299589   13.009131      1.0000       1.0079
      49     1 O    8    5.346613    5.312825    9.232848      6.0000      15.9994
      50     2 C    6    4.725973    2.169238    7.443118      4.0000      12.0107
      51     2 C    6    4.536231    3.449868    7.988282      4.0000      12.0107
      52     2 C    6    5.948335    1.509348    7.714962      4.0000      12.0107
      53     2 C    6    5.583881    4.074868    8.738592      4.0000      12.0107
      54     2 C    6    3.544421    1.478788    6.876560      4.0000      12.0107
      55     2 C    6    6.973151    2.240528    8.297120      4.0000      12.0107
      56     2 C    6    6.775995    3.475665    8.840061      4.0000      12.0107
      57     3 H    1    3.537494    3.863727    7.777410      1.0000       1.0079
      58     3 H    1    5.947833    0.483237    7.398191      1.0000       1.0079
      59     3 H    1    2.995521    2.135196    6.233837      1.0000       1.0079
      60     3 H    1    3.769893    0.577679    6.305779      1.0000       1.0079
      61     3 H    1    2.807833    1.259857    7.590759      1.0000       1.0079
      62     3 H    1    7.925045    1.845344    8.237561      1.0000       1.0079
      63     3 H    1    7.615995    4.096946    9.288661      1.0000       1.0079
      64     3 H    1    6.154545    5.560988    9.733381      1.0000       1.0079
      65     1 O    8   11.545184    8.632645    7.536761      6.0000      15.9994
      66     2 C    6   13.382280   11.157948    9.528939      4.0000      12.0107
      67     2 C    6   12.464481   10.646545    8.545781      4.0000      12.0107
      68     2 C    6   14.076381   10.294246   10.412231      4.0000      12.0107
      69     2 C    6   12.387782    9.279617    8.384551      4.0000      12.0107
      70     2 C    6   13.338581   12.680046    9.700181      4.0000      12.0107
      71     2 C    6   14.071984    8.928397   10.185828      4.0000      12.0107
      72     2 C    6   13.162984    8.430796    9.245152      4.0000      12.0107
      73     3 H    1   12.050685   11.316748    7.851849      1.0000       1.0079
      74     3 H    1   14.801581   10.683948   11.112131      1.0000       1.0079
      75     3 H    1   13.982182   12.968347   10.542731      1.0000       1.0079
      76     3 H    1   13.833282   13.145347    8.847607      1.0000       1.0079
      77     3 H    1   12.305082   12.920849    9.834867      1.0000       1.0079
      78     3 H    1   14.709282    8.274699   10.842230      1.0000       1.0079
      79     3 H    1   13.045480    7.408595    9.049081      1.0000       1.0079
      80     3 H    1   11.420583    9.255534    6.756728      1.0000       1.0079
      81     1 O    8   14.064284   14.910946    2.203830      6.0000      15.9994
      82     2 C    6   13.753382    0.739819    1.295730      4.0000      12.0107
      83     2 C    6   13.752382   17.088548    1.177872      4.0000      12.0107
      84     2 C    6   14.575580    1.275187    2.233522      4.0000      12.0107
      85     2 C    6   14.370482   16.247648    2.138958      4.0000      12.0107
      86     2 C    6   12.932284    1.489435    0.359489      4.0000      12.0107
      87     2 C    6   15.174085    0.488147    3.200937      4.0000      12.0107
      88     2 C    6   15.131481   16.828944    3.103399      4.0000      12.0107
      89     3 H    1   13.115083   16.610346    0.493688      1.0000       1.0079
      90     3 H    1   14.760882    2.309189    2.253742      1.0000       1.0079
      91     3 H    1   13.317081    1.663185   17.071730      1.0000       1.0079
      92     3 H    1   11.970785    0.992332    0.092333      1.0000       1.0079
      93     3 H    1   12.716083    2.565554    0.772929      1.0000       1.0079
      94     3 H    1   15.820184    1.099019    3.827658      1.0000       1.0079
      95     3 H    1   15.671782   16.150147    3.771248      1.0000       1.0079
      96     3 H    1   13.465584   14.692544    1.505369      1.0000       1.0079
      97     1 O    8    0.755086    8.707545    1.619211      6.0000      15.9994
      98     2 C    6    3.568504    8.871156    4.005419      4.0000      12.0107
      99     2 C    6    2.847103    8.415127    2.895618      4.0000      12.0107
     100     2 C    6    3.356934   10.130349    4.592631      4.0000      12.0107
     101     2 C    6    1.751484    9.170358    2.509678      4.0000      12.0107
     102     2 C    6    4.639082    7.914107    4.515048      4.0000      12.0107
     103     2 C    6    2.326451   10.891745    4.081340      4.0000      12.0107
     104     2 C    6    1.518302   10.425048    3.056689      4.0000      12.0107
     105     3 H    1    2.859581    7.491035    2.410431      1.0000       1.0079
     106     3 H    1    3.870225   10.591548    5.427239      1.0000       1.0079
     107     3 H    1    5.424593    7.814839    3.794949      1.0000       1.0079
     108     3 H    1    4.989324    8.276154    5.462170      1.0000       1.0079
     109     3 H    1    4.229070    6.907464    4.595452      1.0000       1.0079
     110     3 H    1    2.010114   11.776148    4.520679      1.0000       1.0079
     111     3 H    1    0.535826   10.954548    2.843880      1.0000       1.0079
     112     3 H    1    0.505123    9.518869    1.160181      1.0000       1.0079
     113     1 O    8    3.179844    6.310028   10.554230      6.0000      15.9994
     114     2 C    6    1.249692    9.248089    9.569829      4.0000      12.0107
     115     2 C    6    1.782102    8.265047   10.344131      4.0000      12.0107
     116     2 C    6    1.604743    9.357285    8.210912      4.0000      12.0107
     117     2 C    6    2.602734    7.318444    9.765979      4.0000      12.0107
     118     2 C    6    0.407379   10.399346   10.124031      4.0000      12.0107
     119     2 C    6    2.271792    8.282044    7.587991      4.0000      12.0107
     120     2 C    6    2.763694    7.224097    8.387721      4.0000      12.0107
     121     3 H    1    1.584063    8.120238   11.392130      1.0000       1.0079
     122     3 H    1    1.183291   10.100149    7.572481      1.0000       1.0079
     123     3 H    1   17.642083   10.126348   11.077227      1.0000       1.0079
     124     3 H    1    0.980944   11.269747   10.357530      1.0000       1.0079
     125     3 H    1   17.306881   10.751148    9.482551      1.0000       1.0079
     126     3 H    1    2.406373    8.132345    6.532489      1.0000       1.0079
     127     3 H    1    3.119042    6.301858    7.969761      1.0000       1.0079
     128     3 H    1    3.912723    5.897238   10.041331      1.0000       1.0079
     129     1 O    8    1.745335    5.617504   12.705331      6.0000      15.9994
     130     2 C    6    2.991531    7.722296   15.469832      4.0000      12.0107
     131     2 C    6    2.975614    6.918878   14.332730      4.0000      12.0107
     132     2 C    6    1.871205    7.666886   16.320129      4.0000      12.0107
     133     2 C    6    1.835105    6.241658   13.927132      4.0000      12.0107
     134     2 C    6    4.216645    8.378185   16.038829      4.0000      12.0107
     135     2 C    6    0.777935    6.925535   15.954230      4.0000      12.0107
     136     2 C    6    0.746190    6.112417   14.796528      4.0000      12.0107
     137     3 H    1    3.879152    6.800808   13.738427      1.0000       1.0079
     138     3 H    1    2.030075    8.166964   17.286328      1.0000       1.0079
     139     3 H    1    4.902411    8.378439   15.249329      1.0000       1.0079
     140     3 H    1    3.948861    9.338234   16.470829      1.0000       1.0079
     141     3 H    1    4.580582    7.904296   16.943532      1.0000       1.0079
     142     3 H    1   17.659583    7.045526   16.551729      1.0000       1.0079
     143     3 H    1   17.545783    5.518808   14.671430      1.0000       1.0079
     144     3 H    1    2.361551    6.076735   12.152732      1.0000       1.0079
     145     1 O    8    6.051065    0.345836   13.050227      6.0000      15.9994
     146     2 C    6    2.892125    1.444254   11.757627      4.0000      12.0107
     147     2 C    6    4.208745    1.110698   11.847328      4.0000      12.0107
     148     2 C    6    1.985851    1.131955   12.824628      4.0000      12.0107
     149     2 C    6    4.669103    0.526851   12.990732      4.0000      12.0107
     150     2 C    6    2.374754    2.286297   10.589828      4.0000      12.0107
     151     2 C    6    2.484871    0.420561   13.889031      4.0000      12.0107
     152     2 C    6    3.812783    0.224427   14.049028      4.0000      12.0107
     153     3 H    1    4.898014    1.193636   11.023727      1.0000       1.0079
     154     3 H    1    0.955554    1.308504   12.769832      1.0000       1.0079
     155     3 H    1    2.962183    3.072236   10.162729      1.0000       1.0079
     156     3 H    1    2.018983    1.686856    9.734149      1.0000       1.0079
     157     3 H    1    1.517265    2.856205   10.971730      1.0000       1.0079
     158     3 H    1    1.910375    0.071685   14.650930      1.0000       1.0079
     159     3 H    1    4.320465   17.656746   14.899532      1.0000       1.0079
     160     3 H    1    6.315420    0.026885   13.896328      1.0000       1.0079
     161     1 O    8   16.592682   14.512846   11.401829      6.0000      15.9994
     162     2 C    6    1.424511   12.451447   13.115729      4.0000      12.0107
     163     2 C    6    0.145860   12.870545   12.657530      4.0000      12.0107
     164     2 C    6    2.543361   13.195846   12.792930      4.0000      12.0107
     165     2 C    6    0.032251   14.014949   11.869231      4.0000      12.0107
     166     2 C    6    1.503935   11.201647   13.934831      4.0000      12.0107
     167     2 C    6    2.393365   14.410445   12.127432      4.0000      12.0107
     168     2 C    6    1.165341   14.793744   11.682431      4.0000      12.0107
     169     3 H    1   16.959084   12.316449   12.964828      1.0000       1.0079
     170     3 H    1    3.529435   12.788448   13.053730      1.0000       1.0079
     171     3 H    1    0.554464   11.101347   14.587630      1.0000       1.0079
     172     3 H    1    1.732582   10.255949   13.331929      1.0000       1.0079
     173     3 H    1    2.342771   11.175347   14.716728      1.0000       1.0079
     174     3 H    1    3.250643   15.010247   11.762331      1.0000       1.0079
     175     3 H    1    1.013065   15.616345   11.016329      1.0000       1.0079
     176     3 H    1   16.732385   15.393646   11.116132      1.0000       1.0079
     177     1 O    8    8.652865   13.696945    7.886389      6.0000      15.9994
     178     2 C    6    7.906132   12.138148    4.723147      4.0000      12.0107
     179     2 C    6    8.415323   13.026446    5.676227      4.0000      12.0107
     180     2 C    6    7.187801   11.021446    5.154437      4.0000      12.0107
     181     2 C    6    8.018053   12.837545    7.007669      4.0000      12.0107
     182     2 C    6    8.166541   12.303447    3.298740      4.0000      12.0107
     183     2 C    6    6.778472   10.907747    6.453700      4.0000      12.0107
     184     2 C    6    7.223314   11.775947    7.459211      4.0000      12.0107
     185     3 H    1    8.827975   13.968048    5.321192      1.0000       1.0079
     186     3 H    1    7.007621   10.276846    4.424760      1.0000       1.0079
     187     3 H    1    9.239252   12.619149    3.261301      1.0000       1.0079
     188     3 H    1    8.036104   11.476047    2.612101      1.0000       1.0079
     189     3 H    1    7.626891   13.145347    2.843028      1.0000       1.0079
     190     3 H    1    6.038931   10.157146    6.743398      1.0000       1.0079
     191     3 H    1    7.196702   11.521445    8.537499      1.0000       1.0079
     192     3 H    1    8.356245   13.488947    8.773041      1.0000       1.0079
     193     1 O    8   10.629384    7.836434   17.692630      6.0000      15.9994
     194     2 C    6    7.050342    8.306418    0.757096      4.0000      12.0107
     195     2 C    6    8.395473    8.564207    0.491296      4.0000      12.0107
     196     2 C    6    6.644352    6.983417    0.683345      4.0000      12.0107
     197     2 C    6    9.290005    7.536724    0.333231      4.0000      12.0107
     198     2 C    6    6.060675    9.409858    0.959242      4.0000      12.0107
     199     2 C    6    7.513012    5.935228    0.514633      4.0000      12.0107
     200     2 C    6    8.898795    6.179824    0.413481      4.0000      12.0107
     201     3 H    1    8.656485    9.564346    0.517506      1.0000       1.0079
     202     3 H    1    5.583341    6.663984    0.820783      1.0000       1.0079
     203     3 H    1    5.884384    9.918747    0.012401      1.0000       1.0079
     204     3 H    1    5.186003    9.020807    1.397570      1.0000       1.0079
     205     3 H    1    6.484482   10.214747    1.554397      1.0000       1.0079
     206     3 H    1    7.033313    4.961838    0.652436      1.0000       1.0079
     207     3 H    1    9.607051    5.352249    0.193502      1.0000       1.0079
     208     3 H    1   11.066283    6.966319    0.139679      1.0000       1.0079
     209     1 O    8    6.779334    0.048671   16.620427      6.0000      15.9994
     210     2 C    6   10.140985    0.721695   15.069229      4.0000      12.0107
     211     2 C    6    8.969472    0.097419   15.641031      4.0000      12.0107
     212     2 C    6   10.092984    2.114918   15.213027      4.0000      12.0107
     213     2 C    6    7.909091    0.789080   16.290929      4.0000      12.0107
     214     2 C    6   11.217485   17.709548   14.366931      4.0000      12.0107
     215     2 C    6    9.108031    2.831207   15.825830      4.0000      12.0107
     216     2 C    6    7.953885    2.184949   16.286532      4.0000      12.0107
     217     3 H    1    8.810782   16.813846   15.352132      1.0000       1.0079
     218     3 H    1   10.934682    2.558056   14.701027      1.0000       1.0079
     219     3 H    1   11.352685   16.621247   14.699530      1.0000       1.0079
     220     3 H    1   10.883283   17.516144   13.345630      1.0000       1.0079
     221     3 H    1   12.200384    0.393319   14.390527      1.0000       1.0079
     222     3 H    1    9.188043    3.905749   15.877430      1.0000       1.0079
     223     3 H    1    7.152071    2.774696   16.663830      1.0000       1.0079
     224     3 H    1    6.317611    0.599285   17.262329      1.0000       1.0079
     225     1 O    8   15.572185   12.549747    2.157760      6.0000      15.9994
     226     2 C    6   16.046984   10.937148    5.435632      4.0000      12.0107
     227     2 C    6   15.553585   11.127345    4.138142      4.0000      12.0107
     228     2 C    6   16.556285   11.980146    6.156868      4.0000      12.0107
     229     2 C    6   15.895184   12.304045    3.528710      4.0000      12.0107
     230     2 C    6   15.976381    9.542078    6.110481      4.0000      12.0107
     231     2 C    6   16.828282   13.181145    5.542081      4.0000      12.0107
     232     2 C    6   16.471781   13.394044    4.242337      4.0000      12.0107
     233     3 H    1   14.972384   10.397144    3.571928      1.0000       1.0079
     234     3 H    1   16.824684   11.887847    7.144758      1.0000       1.0079
     235     3 H    1   14.913582    9.267589    6.176077      1.0000       1.0079
     236     3 H    1   16.363083    8.677996    5.612461      1.0000       1.0079
     237     3 H    1   16.332782    9.665668    7.127951      1.0000       1.0079
     238     3 H    1   17.380283   13.995745    5.938112      1.0000       1.0079
     239     3 H    1   16.637784   14.338747    3.843808      1.0000       1.0079
     240     3 H    1   15.253282   13.408348    2.057311      1.0000       1.0079
     241     1 O    8   12.151684    9.192896    1.431438      6.0000      15.9994
     242     2 C    6   11.614680   11.254247    4.428978      4.0000      12.0107
     243     2 C    6   12.115383   10.785745    3.224359      4.0000      12.0107
     244     2 C    6   10.695182   10.442447    5.146870      4.0000      12.0107
     245     2 C    6   11.648384    9.613004    2.654742      4.0000      12.0107
     246     2 C    6   12.015680   12.560246    5.033632      4.0000      12.0107
     247     2 C    6   10.121284    9.244168    4.573919      4.0000      12.0107
     248     2 C    6   10.623484    8.873638    3.304598      4.0000      12.0107
     249     3 H    1   12.884981   11.325347    2.642259      1.0000       1.0079
     250     3 H    1   10.363684   10.843447    6.103977      1.0000       1.0079
     251     3 H    1   11.404883   13.388244    4.791231      1.0000       1.0079
     252     3 H    1   11.886884   12.453749    6.131410      1.0000       1.0079
     253     3 H    1   13.057884   12.839048    4.684369      1.0000       1.0079
     254     3 H    1    9.337652    8.754864    5.051470      1.0000       1.0079
     255     3 H    1   10.226680    7.963278    2.878912      1.0000       1.0079
     256     3 H    1   11.416281    8.786657    0.926005      1.0000       1.0079
     257     1 O    8    5.639143    1.550735    0.716524      6.0000      15.9994
     258     2 C    6    2.736971    3.721055    0.296591      4.0000      12.0107
     259     2 C    6    3.615325    2.607476    0.181595      4.0000      12.0107
     260     2 C    6    2.924770    4.605024    1.356490      4.0000      12.0107
     261     2 C    6    4.644221    2.443759    1.092611      4.0000      12.0107
     262     2 C    6    1.717712    3.756118   16.966228      4.0000      12.0107
     263     2 C    6    3.854461    4.350559    2.330520      4.0000      12.0107
     264     2 C    6    4.782675    3.306074    2.150838      4.0000      12.0107
     265     3 H    1    3.559222    1.969489   17.054029      1.0000       1.0079
     266     3 H    1    2.199851    5.482236    1.429882      1.0000       1.0079
     267     3 H    1    2.048501    4.036746   16.022827      1.0000       1.0079
     268     3 H    1    1.277992    2.848468   16.837628      1.0000       1.0079
     269     3 H    1    0.975096    4.523415   17.222530      1.0000       1.0079
     270     3 H    1    3.952041    4.885647    3.281457      1.0000       1.0079
     271     3 H    1    5.526973    3.051858    2.877139      1.0000       1.0079
     272     3 H    1    6.258243    1.683294    1.445709      1.0000       1.0079
     273     1 O    8    6.205764   17.471344    4.795920      6.0000      15.9994
     274     2 C    6    3.125075   16.601546    2.979011      4.0000      12.0107
     275     2 C    6    4.222625   17.300848    3.454810      4.0000      12.0107
     276     2 C    6    2.939185   15.303146    3.419667      4.0000      12.0107
     277     2 C    6    5.074981   16.766046    4.421670      4.0000      12.0107
     278     2 C    6    2.272972   17.335848    1.968081      4.0000      12.0107
     279     2 C    6    3.790383   14.756448    4.336568      4.0000      12.0107
     280     2 C    6    4.870872   15.466048    4.835227      4.0000      12.0107
     281     3 H    1    4.339483    0.537864    3.098859      1.0000       1.0079
     282     3 H    1    1.975903   14.776244    3.157508      1.0000       1.0079
     283     3 H    1    1.323882   16.772449    1.926509      1.0000       1.0079
     284     3 H    1    2.131174    0.637455    2.343390      1.0000       1.0079
     285     3 H    1    2.588653   17.370049    0.916141      1.0000       1.0079
     286     3 H    1    3.803564   13.697146    4.591419      1.0000       1.0079
     287     3 H    1    5.510711   15.032546    5.638190      1.0000       1.0079
     288     3 H    1    6.682273   16.842449    5.345841      1.0000       1.0079
     289     1 O    8    7.394561    6.016578   10.519030      6.0000      15.9994
     290     2 C    6    5.783391    4.961177   13.625030      4.0000      12.0107
     291     2 C    6    6.297963    5.013327   12.310728      4.0000      12.0107
     292     2 C    6    6.291512    5.855856   14.608929      4.0000      12.0107
     293     2 C    6    7.099153    6.056817   11.934330      4.0000      12.0107
     294     2 C    6    4.851774    3.851026   14.062829      4.0000      12.0107
     295     2 C    6    7.110414    6.892488   14.182031      4.0000      12.0107
     296     2 C    6    7.535793    6.955376   12.871931      4.0000      12.0107
     297     3 H    1    6.141353    4.234394   11.573330      1.0000       1.0079
     298     3 H    1    5.867324    5.910388   15.565131      1.0000       1.0079
     299     3 H    1    4.429465    4.145275   14.991127      1.0000       1.0079
     300     3 H    1    4.140354    3.702264   13.307031      1.0000       1.0079
     301     3 H    1    5.268745    2.818014   14.068131      1.0000       1.0079
     302     3 H    1    7.441012    7.728805   14.760930      1.0000       1.0079
     303     3 H    1    8.259401    7.631574   12.659229      1.0000       1.0079
     304     3 H    1    7.782411    6.810429   10.159628      1.0000       1.0079
     305     1 O    8   15.812585   11.678346   17.273231      6.0000      15.9994
     306     2 C    6   15.433985    8.831827   14.949529      4.0000      12.0107
     307     2 C    6   15.669183   10.094846   15.426730      4.0000      12.0107
     308     2 C    6   14.954582    7.854935   15.807928      4.0000      12.0107
     309     2 C    6   15.476981   10.405944   16.786731      4.0000      12.0107
     310     2 C    6   15.767182    8.494017   13.473331      4.0000      12.0107
     311     2 C    6   14.691782    8.147458   17.145731      4.0000      12.0107
     312     2 C    6   14.917783    9.382849   17.638029      4.0000      12.0107
     313     3 H    1   16.105982   10.733346   14.696630      1.0000       1.0079
     314     3 H    1   15.025783    6.813165   15.510732      1.0000       1.0079
     315     3 H    1   15.137884    7.629579   13.170027      1.0000       1.0079
     316     3 H    1   15.595083    9.396026   12.858231      1.0000       1.0079
     317     3 H    1   16.766580    8.039517   13.242429      1.0000       1.0079
     318     3 H    1   14.149381    7.421295    0.104399      1.0000       1.0079
     319     3 H    1   14.761184    9.609596    0.908531      1.0000       1.0079
     320     3 H    1   15.717783   11.659248    0.520491      1.0000       1.0079
     321     1 O    8    8.393531    7.966517    8.768411      6.0000      15.9994
     322     2 C    6    6.075042    9.837555   10.894931      4.0000      12.0107
     323     2 C    6    6.586835    8.981378    9.892658      4.0000      12.0107
     324     2 C    6    6.968235   10.709745   11.490027      4.0000      12.0107
     325     2 C    6    7.954642    9.020998    9.579221      4.0000      12.0107
     326     2 C    6    4.625075    9.766418   11.284230      4.0000      12.0107
     327     2 C    6    8.280890   10.774347   11.143332      4.0000      12.0107
     328     2 C    6    8.791075   10.017147   10.087030      4.0000      12.0107
     329     3 H    1    6.016054    8.244536    9.355887      1.0000       1.0079
     330     3 H    1    6.619973   11.273144   12.367229      1.0000       1.0079
     331     3 H    1    4.502353    8.915374   11.910030      1.0000       1.0079
     332     3 H    1    4.420903   10.655446   11.839030      1.0000       1.0079
     333     3 H    1    3.893593    9.655624   10.519231      1.0000       1.0079
     334     3 H    1    8.998703   11.310144   11.713631      1.0000       1.0079
     335     3 H    1    9.780520   10.178747    9.683808      1.0000       1.0079
     336     3 H    1    9.049002    8.418016    8.169848      1.0000       1.0079
     337     1 O    8    0.782074   11.086244   17.724031      6.0000      15.9994
     338     2 C    6    2.146192   14.469644   17.108032      4.0000      12.0107
     339     2 C    6    1.252401   13.366548   17.085632      4.0000      12.0107
     340     2 C    6    3.364554   14.402248    0.128926      4.0000      12.0107
     341     2 C    6    1.618221   12.204549    0.049555      4.0000      12.0107
     342     2 C    6    1.954492   15.622647   16.185528      4.0000      12.0107
     343     2 C    6    3.721542   13.211848    0.813914      4.0000      12.0107
     344     2 C    6    2.856644   12.130946    0.702644      4.0000      12.0107
     345     3 H    1    0.302814   13.400548   16.545628      1.0000       1.0079
     346     3 H    1    3.892805   15.322646    0.310042      1.0000       1.0079
     347     3 H    1    1.110873   15.459047   15.510928      1.0000       1.0079
     348     3 H    1    1.782404   16.598545   16.803131      1.0000       1.0079
     349     3 H    1    2.841282   15.804346   15.555331      1.0000       1.0079
     350     3 H    1    4.494543   13.241445    1.597091      1.0000       1.0079
     351     3 H    1    3.169473   11.171748    1.044228      1.0000       1.0079
     352     3 H    1    0.071844   11.374646   17.151832      1.0000       1.0079
     353     1 O    8   16.767581   17.321148   11.376228      6.0000      15.9994
     354     2 C    6   17.632584   17.666044    7.777278      4.0000      12.0107
     355     2 C    6   17.670484   17.115144    9.062707      4.0000      12.0107
     356     2 C    6   17.171882    1.262836    7.557537      4.0000      12.0107
     357     2 C    6   16.943384    0.071960   10.118829      4.0000      12.0107
     358     2 C    6    0.402908   16.973849    6.476809      4.0000      12.0107
     359     2 C    6   16.663581    1.983766    8.603069      4.0000      12.0107
     360     2 C    6   16.494885    1.332116    9.822849      4.0000      12.0107
     361     3 H    1    0.372702   16.088149    9.228139      1.0000       1.0079
     362     3 H    1   17.255381    1.750685    6.606187      1.0000       1.0079
     363     3 H    1    1.019373   17.656847    5.853697      1.0000       1.0079
     364     3 H    1    1.082435   16.167848    6.836697      1.0000       1.0079
     365     3 H    1   17.376182   16.771047    5.711619      1.0000       1.0079
     366     3 H    1   16.234884    2.975905    8.467499      1.0000       1.0079
     367     3 H    1   16.244785    1.931944   10.755831      1.0000       1.0079
     368     3 H    1   16.104881    0.136308   11.846730      1.0000       1.0079
     369     1 O    8   12.098983   11.890445   17.470032      6.0000      15.9994
     370     2 C    6   12.231384   10.545748   14.113831      4.0000      12.0107
     371     2 C    6   12.109583   10.614747   15.472028      4.0000      12.0107
     372     2 C    6   12.391184   11.728448   13.325727      4.0000      12.0107
     373     2 C    6   12.218085   11.884148   16.060727      4.0000      12.0107
     374     2 C    6   12.187282    9.228176   13.368231      4.0000      12.0107
     375     2 C    6   12.401281   12.986149   13.969530      4.0000      12.0107
     376     2 C    6   12.294684   13.081644   15.365229      4.0000      12.0107
     377     3 H    1   11.901785    9.792078   16.108427      1.0000       1.0079
     378     3 H    1   12.580783   11.673848   12.276231      1.0000       1.0079
     379     3 H    1   13.070981    8.988189   12.795529      1.0000       1.0079
     380     3 H    1   11.976183    8.365548   14.003730      1.0000       1.0079
     381     3 H    1   11.359882    9.217217   12.668828      1.0000       1.0079
     382     3 H    1   12.492982   13.890746   13.462631      1.0000       1.0079
     383     3 H    1   12.190981   13.990046   15.940630      1.0000       1.0079
     384     3 H    1   11.852180   11.034644    0.031388      1.0000       1.0079
     385     1 O    8   12.057983    5.523459    0.401458      6.0000      15.9994
     386     2 C    6   11.769481    5.142965   14.449430      4.0000      12.0107
     387     2 C    6   11.449381    5.596168   15.777130      4.0000      12.0107
     388     2 C    6   12.949181    4.417939   14.221429      4.0000      12.0107
     389     2 C    6   12.316983    5.215489   16.826028      4.0000      12.0107
     390     2 C    6   10.645185    5.317577   13.472029      4.0000      12.0107
     391     2 C    6   13.838982    4.135406   15.270427      4.0000      12.0107
     392     2 C    6   13.440183    4.520536   16.545231      4.0000      12.0107
     393     3 H    1   10.508584    6.054975   15.963829      1.0000       1.0079
     394     3 H    1   13.052884    3.994417   13.225231      1.0000       1.0079
     395     3 H    1    9.847371    4.619355   13.610631      1.0000       1.0079
     396     3 H    1   10.230485    6.275007   13.507129      1.0000       1.0079
     397     3 H    1   11.133383    5.131138   12.530829      1.0000       1.0079
     398     3 H    1   14.664784    3.561535   15.281429      1.0000       1.0079
     399     3 H    1   14.121181    4.138274   17.286730      1.0000       1.0079
     400     3 H    1   12.824581    5.295537    0.935006      1.0000       1.0079
     401     1 O    8    7.283645   14.250946   10.216229      6.0000      15.9994
     402     2 C    6    3.811915   13.930249    9.151530      4.0000      12.0107
     403     2 C    6    5.073055   13.688648    9.660572      4.0000      12.0107
     404     2 C    6    3.524841   15.251647    8.746688      4.0000      12.0107
     405     2 C    6    6.027590   14.675849    9.810451      4.0000      12.0107
     406     2 C    6    2.777691   12.883848    9.147037      4.0000      12.0107
     407     2 C    6    4.464332   16.241647    8.915152      4.0000      12.0107
     408     2 C    6    5.765981   15.953346    9.421622      4.0000      12.0107
     409     3 H    1    5.273243   12.695049   10.013332      1.0000       1.0079
     410     3 H    1    2.499624   15.525247    8.443591      1.0000       1.0079
     411     3 H    1    1.859743   13.251648    9.488018      1.0000       1.0079
     412     3 H    1    2.614334   12.461449    8.152359      1.0000       1.0079
     413     3 H    1    2.929903   12.014844    9.705658      1.0000       1.0079
     414     3 H    1    4.235923   17.180249    8.544997      1.0000       1.0079
     415     3 H    1    6.510295   16.696046    9.501898      1.0000       1.0079
     416     3 H    1    7.812283   15.030048   10.439431      1.0000       1.0079
     417     1 O    8   11.860981   14.152344    0.913045      6.0000      15.9994
     418     2 C    6    8.291373   14.943247    0.706163      4.0000      12.0107
     419     2 C    6    9.514175   14.287147    0.539033      4.0000      12.0107
     420     2 C    6    8.184882   16.018244    1.569029      4.0000      12.0107
     421     2 C    6   10.652784   14.779748    1.153678      4.0000      12.0107
     422     2 C    6    7.072223   14.383944    0.052746      4.0000      12.0107
     423     2 C    6    9.343425   16.549348    2.126930      4.0000      12.0107
     424     2 C    6   10.601682   15.876547    1.978951      4.0000      12.0107
     425     3 H    1    9.635790   13.518644   17.525230      1.0000       1.0079
     426     3 H    1    7.196003   16.377249    1.816800      1.0000       1.0079
     427     3 H    1    6.446535   13.846348    0.787159      1.0000       1.0079
     428     3 H    1    6.363591   15.094746   17.378230      1.0000       1.0079
     429     3 H    1    7.424915   13.616944   17.014431      1.0000       1.0079
     430     3 H    1    9.380515   17.485748    2.715301      1.0000       1.0079
     431     3 H    1   11.549285   16.091049    2.456819      1.0000       1.0079
     432     3 H    1   11.776381   13.221146    0.589194      1.0000       1.0079
     433     1 O    8    8.208250   16.304545    6.895938      6.0000      15.9994
     434     2 C    6   11.687982   16.607848    5.788958      4.0000      12.0107
     435     2 C    6   10.497984   16.080746    6.340837      4.0000      12.0107
     436     2 C    6   11.538982    0.112596    5.147447      4.0000      12.0107
     437     2 C    6    9.335435   16.861144    6.368380      4.0000      12.0107
     438     2 C    6   13.019482   15.832546    5.981700      4.0000      12.0107
     439     2 C    6   10.354985    0.831716    5.109172      4.0000      12.0107
     440     2 C    6    9.201945    0.314154    5.707099      4.0000      12.0107
     441     3 H    1   10.514981   15.048744    6.739048      1.0000       1.0079
     442     3 H    1   12.382982    0.505949    4.605167      1.0000       1.0079
     443     3 H    1   13.188284   15.106546    5.294040      1.0000       1.0079
     444     3 H    1   13.849983   16.527747    5.829720      1.0000       1.0079
     445     3 H    1   13.012285   15.521744    7.038880      1.0000       1.0079
     446     3 H    1   10.382782    1.776795    4.616957      1.0000       1.0079
     447     3 H    1    8.253902    0.820672    5.582637      1.0000       1.0079
     448     3 H    1    8.462991   15.487347    7.360651      1.0000       1.0079
     449     1 O    8    9.356872   14.870348   12.951927      6.0000      15.9994
[...]
    509       H      3       1.000          0.557                         0.443
    510       H      3       1.000          0.556                         0.444
    511       H      3       1.000          0.558                         0.442
    512       H      3       1.000          0.432                         0.568

  Total Charge                                                            0.051
 !-----------------------------------------------------------------------------!

LINE REMOVED FOR TESTING

 STRESS| Analytical stress tensor [GPa]
 STRESS|                        x                   y                   z
 STRESS|      x        2.61466029566E+00   2.83853543149E-01   3.11832755734E-01
 STRESS|      y        2.83853543149E-01   3.33237359228E+00  -5.99395247119E-02
 STRESS|      z        3.11832755734E-01  -5.99395247119E-02   2.62054503470E+00
 STRESS| 1/3 Trace                                             2.85585964088E+00
 STRESS| Determinant                                           2.22776856705E+01

 STRESS| Eigenvectors and eigenvalues of the analytical stress tensor [GPa]
 STRESS|                        1                   2                   3
 STRESS| Eigenvalues   2.24897108148E+00   2.88457173749E+00   3.43403610367E+00
 STRESS|      x           0.727792587387      0.590615982040      0.348555177129
 STRESS|      y          -0.226495963883     -0.272723688172      0.935051532406
 STRESS|      z          -0.647315632508      0.759469914920      0.064714142519

 -------------------------------------------------------------------------------
 -                                                                             -
 -                                DBCSR STATISTICS                             -
 -                                                                             -
 -------------------------------------------------------------------------------
 COUNTER                                    TOTAL       BLAS       SMM       ACC
 flops     5 x    32 x    32            165150720       0.0%    100.0%      0.0%
 flops    13 x    32 x    32            429391872       0.0%    100.0%      0.0%
 flops   192 x    96 x    32           5616304128       0.0%    100.0%      0.0%
 flops   192 x   128 x    32           7488405504       0.0%    100.0%      0.0%
 flops   192 x    96 x   335           9817804800       0.0%    100.0%      0.0%
 flops     5 x     5 x    32          10356955200       0.0%    100.0%      0.0%
 flops   192 x   128 x   335          13090406400       0.0%    100.0%      0.0%
 flops   160 x    96 x    32          14040760320       0.0%    100.0%      0.0%
 flops   160 x   128 x    32          18721013760       0.0%    100.0%      0.0%
 flops   192 x    96 x   367          21511249920       0.0%    100.0%      0.0%
 flops   192 x    96 x   410          24031641600       0.0%    100.0%      0.0%
 flops   160 x    96 x   335          24544512000       0.0%    100.0%      0.0%
 flops    13 x     5 x    32          25080981120       0.0%    100.0%      0.0%
 flops     5 x    13 x    32          25085286720       0.0%    100.0%      0.0%
 flops   192 x   128 x   367          28681666560       0.0%    100.0%      0.0%
 flops   192 x   128 x   410          32042188800       0.0%    100.0%      0.0%
 flops   160 x   128 x   335          32726016000       0.0%    100.0%      0.0%
 flops   192 x    96 x    64          33697824768       0.0%    100.0%      0.0%
 flops   192 x   128 x    64          44930433024       0.0%    100.0%      0.0%
 flops   160 x    96 x   367          53778124800       0.0%    100.0%      0.0%
 flops    13 x    13 x    32          59017720320       0.0%    100.0%      0.0%
 flops   160 x    96 x   410          60079104000       0.0%    100.0%      0.0%
 flops     5 x     5 x    64          62141731200       0.0%    100.0%      0.0%
 flops  1152 x    96 x   335          62241177600       0.0%    100.0%      0.0%
 flops   160 x   128 x   367          71704166400       0.0%    100.0%      0.0%
 flops   160 x   128 x   410          80105472000       0.0%    100.0%      0.0%
 flops  1152 x   128 x   335          82988236800       0.0%    100.0%      0.0%
 flops  1152 x    96 x    32          83830505472       0.0%    100.0%      0.0%
 flops   160 x    96 x    64          84244561920       0.0%    100.0%      0.0%
 flops  1152 x   128 x    32         111774007296       0.0%    100.0%      0.0%
 flops   160 x   128 x    64         112326082560       0.0%    100.0%      0.0%
 flops  1152 x    96 x   367         136373207040       0.0%    100.0%      0.0%
 flops    13 x     5 x    64         150485886720       0.0%    100.0%      0.0%
 flops     5 x    13 x    64         150511720320       0.0%    100.0%      0.0%
 flops  1152 x    96 x   410         152351539200       0.0%    100.0%      0.0%
 flops  1152 x   128 x   367         181830942720       0.0%    100.0%      0.0%
 flops  1152 x   128 x   410         203135385600       0.0%    100.0%      0.0%
 flops     5 x    32 x     5         299271772800       0.0%    100.0%      0.0%
 flops    13 x    13 x    64         354106321920       0.0%    100.0%      0.0%
 flops  1152 x    96 x    64         502983032832       0.0%    100.0%      0.0%
 flops  1152 x   128 x    64         670644043776       0.0%    100.0%      0.0%
 flops     5 x    32 x    13         727774407360       0.0%    100.0%      0.0%
 flops    13 x    32 x     5         727774407360       0.0%    100.0%      0.0%
 flops    13 x    32 x    13        1704054223872       0.0%    100.0%      0.0%
 flops inhomo. stacks               1931108659200     100.0%      0.0%      0.0%
 flops total                         9.188694E+12      21.0%     79.0%      0.0%
 flops max/rank                    442.911843E+09      21.8%     78.2%      0.0%
 matmuls inhomo. stacks                     56280     100.0%      0.0%      0.0%
 matmuls total                          790816896       0.0%    100.0%      0.0%
 number of processed stacks               1332804       4.2%     95.8%      0.0%
 average stack size                                     1.0     619.5       0.0
 marketing flops                    10.865942E+12
 -------------------------------------------------------------------------------
 # multiplications                           1411
 max memory usage/rank             756.211712E+06
 # max total images/rank                        3
 # max 3D layers                                1
 # MPI messages exchanged                  643416
 MPI messages size (bytes):
  total size                       304.398402E+09
  min size                           0.000000E+00
  max size                           3.778560E+06
  average size                     473.097344E+03
 MPI breakdown and total messages size (bytes):
             size <=      128                1908                        0
       128 < size <=     8192                  27                   221184
      8192 < size <=    32768               46413               1329758208
     32768 < size <=   131072              265956              17526104064
    131072 < size <=  4194304              329112             285541596288
   4194304 < size <= 16777216                   0                        0
  16777216 < size                               0                        0
 -------------------------------------------------------------------------------

 *** WARNING in dbcsr_mm.F:294 :: Using a non-square number of MPI ranks ***
 *** might lead to poor performance. Used ranks: 24 Suggested: 25 49     ***

 -------------------------------------------------------------------------------
 -                                                                             -
 -                      DBCSR MESSAGE PASSING PERFORMANCE                      -
 -                                                                             -
 -------------------------------------------------------------------------------
 ROUTINE             CALLS      AVE VOLUME [Bytes]
 MP_Bcast               45                     12.
 MP_Allreduce         7712                     28.
 MP_Alltoall          4810                  95318.
 MP_ISend            65236                 223592.
 MP_IRecv            64010                 223991.
 -------------------------------------------------------------------------------

 -------------------------------------------------------------------------------
 -                                                                             -
 -                                GRID STATISTICS                              -
 -                                                                             -
 -------------------------------------------------------------------------------
 LP    KERNEL             BACKEND                              COUNT     PERCENT
 3     collocate ortho    REF                               21675748      24.66%
 3     integrate ortho    REF                               21356987      24.30%
 2     collocate ortho    REF                               12774412      14.54%
 2     integrate ortho    REF                               12586553      14.32%
 4     collocate ortho    REF                                9466076      10.77%
 4     integrate ortho    REF                                9326869      10.61%
 6     integrate ortho    REF                                 318761       0.36%
 5     integrate ortho    REF                                 187859       0.21%
 7     integrate ortho    REF                                 139207       0.16%
 0     collocate general  REF                                  24576       0.03%
 0     integrate general  REF                                  12288       0.01%
 3     integrate general  REF                                  12288       0.01%
 -------------------------------------------------------------------------------

 MEMORY| Estimated peak process memory [MiB]                                 722

 -------------------------------------------------------------------------------
 ----                             MULTIGRID INFO                            ----
 -------------------------------------------------------------------------------
 count for grid        1:         299035          cutoff [a.u.]          300.00
 count for grid        2:         219890          cutoff [a.u.]          100.00
 count for grid        3:         286470          cutoff [a.u.]           33.33
 count for grid        4:         252366          cutoff [a.u.]           11.11
 total gridlevel count  :        1057761

 -------------------------------------------------------------------------------
 -                                                                             -
 -                         MESSAGE PASSING PERFORMANCE                         -
 -                                                                             -
 -------------------------------------------------------------------------------

 ROUTINE             CALLS      AVE VOLUME [Bytes]
 MP_Group                4
 MP_Bcast             3047                 116012.
 MP_Allreduce         8192                    680.
 MP_Sync                62
 MP_Alltoall          1308               32105924.
 MP_ISendRecv         6256                 164592.
 MP_Wait             15220
 MP_comm_split          58
 MP_ISend             8000                 589176.
 MP_IRecv             8000                 589176.
 -------------------------------------------------------------------------------


 -------------------------------------------------------------------------------
 -                                                                             -
 -                           R E F E R E N C E S                               -
 -                                                                             -
 -------------------------------------------------------------------------------
 
 CP2K version 8.1, the CP2K developers group (2020).
 CP2K is freely available from https://www.cp2k.org/ .

 Kuehne,Thomas D.; Iannuzzi,Marcella; Del Ben,Mauro;
 Rybkin,Vladimir V.; Seewald,Patrick; Stein,Frederick; Laino,Teodoro;
 Khaliullin,Rustam Z.; Schuett,Ole; Schiffmann,Florian; Golze,Dorothea;
 Wilhelm,Jan; Chulkov,Sergey; Bani-Hashemian,Mohammad Hossein;
 Weber,Valery; Borstnik,Urban; Taillefumier,Mathieu;
 Jakobovits,Alice Shoshana; Lazzaro,Alfio; Pabst,Hans; Mueller,Tiziano;
 Schade,Robert; Guidon,Manuel; Andermatt,Samuel; Holmberg,Nico;
 Schenter,Gregory K.; Hehn,Anna; Bussy,Augustin; Belleflamme,Fabian;
 Tabacchi,Gloria; Gloess,Andreas; Lass,Michael; Bethune,Iain;
 Mundy,Christopher J.; Plessl,Christian; Watkins,Matt;
 VandeVondele,Joost; Krack,Matthias; Hutter,Juerg. 
 The Journal of Chemical Physics, 152 (19), (2020). 
 CP2K: An electronic structure and molecular dynamics software package -
 Quickstep: Efficient and accurate electronic structure calculations.
 https://doi.org/10.1063/5.0007045

 Schuett, Ole; Messmer, Peter; Hutter, Juerg; VandeVondele, Joost. 
 Electronic Structure Calculations on Graphics Processing Units, John
 Wiley & Sons, Ltd, 173-190 (2016). 
 GPU-Accelerated Sparse Matrix-Matrix Multiplication for
 Linear Scaling Density Functional Theory.
 https://doi.org/10.1002/9781118670712.ch8

 Borstnik, U; VandeVondele, J; Weber, V; Hutter, J. 
 PARALLEL COMPUTING, 40 (5-6), 47-58 (2014). 
 Sparse matrix multiplication: The distributed block-compressed sparse
 row library.
 https://doi.org/10.1016/j.parco.2014.03.012

 Hutter, J; Iannuzzi, M; Schiffmann, F; VandeVondele, J. 
 WIREs Comput Mol Sci., 4 (1), 15-25 (2014). 
 CP2K: atomistic simulations of condensed matter systems.
 https://doi.org/10.1002/wcms.1159

 VandeVondele, J; Hutter, J. 
 JOURNAL OF CHEMICAL PHYSICS, 127 (11), 114105 (2007). 
 Gaussian basis sets for accurate calculations on molecular systems in
 gas and condensed phases.
 https://doi.org/10.1063/1.2770708

 Krack, M. 
 THEORETICAL CHEMISTRY ACCOUNTS, 114 (1-3), 145-152 (2005). 
 Pseudopotentials for H to Kr optimized for gradient-corrected
 exchange-correlation functionals.
 https://doi.org/10.1007/s00214-005-0655-y

 VandeVondele, J; Krack, M; Mohamed, F; Parrinello, M; Chassaing, T;
 Hutter, J. COMPUTER PHYSICS COMMUNICATIONS, 167 (2), 103-128 (2005). 
 QUICKSTEP: Fast and accurate density functional calculations using a
 mixed Gaussian and plane waves approach.
 https://doi.org/10.1016/j.cpc.2004.12.014

 Frigo, M; Johnson, SG. 
 PROCEEDINGS OF THE IEEE, 93 (2), 216-231 (2005). 
 The design and implementation of FFTW3.
 https://doi.org/10.1109/JPROC.2004.840301

 VandeVondele, J; Hutter, J. 
 JOURNAL OF CHEMICAL PHYSICS, 118 (10), 4365-4369 (2003). 
 An efficient orbital transformation method for electronic structure
 calculations.
 https://doi.org/10.1063/1.1543154

 Hartwigsen, C; Goedecker, S; Hutter, J. 
 PHYSICAL REVIEW B, 58 (7), 3641-3662 (1998). 
 Relativistic separable dual-space Gaussian pseudopotentials from H to Rn.
 https://doi.org/10.1103/PhysRevB.58.3641

 Lippert, G; Hutter, J; Parrinello, M. 
 MOLECULAR PHYSICS, 92 (3), 477-487 (1997). 
 A hybrid Gaussian and plane wave density functional scheme.
 https://doi.org/10.1080/002689797170220

 Goedecker, S; Teter, M; Hutter, J. 
 PHYSICAL REVIEW B, 54 (3), 1703-1710 (1996). 
 Separable dual-space Gaussian pseudopotentials.
 https://doi.org/10.1103/PhysRevB.54.1703


 -------------------------------------------------------------------------------
 -                                                                             -
 -                                T I M I N G                                  -
 -                                                                             -
 -------------------------------------------------------------------------------
 SUBROUTINE                       CALLS  ASD         SELF TIME        TOTAL TIME
                                MAXIMUM       AVERAGE  MAXIMUM  AVERAGE  MAXIMUM
LINE REMOVED FOR TESTING
 qs_forces                            1  2.0    0.001    0.001  323.762  323.763
 qs_energies                          1  3.0    0.002    0.004  317.620  317.621
 scf_env_do_scf                       1  4.0    0.000    0.000  314.638  314.639
 scf_env_do_scf_inner_loop           67  5.0    0.002    0.006  304.607  304.607
 rebuild_ks_matrix                   68  7.0    0.000    0.000  179.380  179.592
 qs_ks_build_kohn_sham_matrix        68  8.0    0.009    0.009  179.380  179.592
 qs_ks_update_qs_env                 70  6.0    0.000    0.001  174.504  174.715
 qs_rho_update_rho                   68  6.0    0.000    0.000  106.378  106.436
 calculate_rho_elec                  68  7.0    0.275    0.293  106.378  106.435
 sum_up_and_integrate                68  9.0    0.170    0.183  103.276  103.286
 integrate_v_rspace                  68 10.0    0.002    0.002  103.106  103.117
 grid_integrate_task_list            68 11.0   87.848   89.466   87.848   89.466
 grid_collocate_task_list            68  8.0   86.080   87.035   86.080   87.035
 pw_transfer                       1293 10.6    0.067    0.083   70.621   71.124
 fft_wrap_pw1pw2                   1157 11.7    0.012    0.015   69.877   70.383
 fft_wrap_pw1pw2_300                749 12.8    5.114    5.343   67.176   67.609
 qs_vxc_create                       68  9.0    0.001    0.002   61.347   61.446
 xc_vxc_pw_create                    68 10.0    0.880    0.990   61.345   61.444
 fft3d_ps                          1157 13.7   30.570   31.961   51.972   52.607
 dbcsr_multiply_generic            1411 11.1    0.083    0.094   34.745   35.258
 xc_rho_set_and_dset_create          68 11.0    0.287    0.319   33.376   34.091
 qs_scf_new_mos                      67  6.0    0.000    0.001   33.105   33.491
 qs_scf_loop_do_ot                   67  7.0    0.000    0.001   33.105   33.490
 ot_scf_mini                         67  8.0    0.001    0.002   30.544   30.824
 multiply_cannon                   1411 12.1    0.104    0.124   26.962   28.601
 multiply_cannon_loop              1411 13.1    0.160    0.180   25.612   27.420
 multiply_cannon_multrec          16932 14.1   19.012   21.797   19.023   21.808
 density_rs2pw                       68  8.0    0.003    0.004   19.427   20.637
 ot_mini                             67  9.0    0.000    0.001   17.647   17.985
 potential_pw2rs                     68 11.0    0.019    0.020   13.011   13.026
 x_to_yz                            612 15.2    8.745    9.214   12.157   12.589
 rs_pw_transfer                     548 10.5    0.007    0.009   10.960   12.208
 xc_functional_eval                  68 12.0   11.411   12.130   11.411   12.130
 mp_waitall_1                     86236 15.0    8.121   10.587    8.121   10.587
 qs_ot_get_derivative                67 10.0    0.001    0.001    9.841   10.128
 init_scf_loop                        3  5.0    0.000    0.000   10.026   10.027
 yz_to_x                            545 14.1    5.369    5.552    9.223    9.973
 multiply_cannon_metrocomm3       16932 14.1    0.033    0.036    5.901    8.534
 mp_alltoall_z22v                  1157 15.7    7.266    8.521    7.266    8.521
 ot_diis_step                        67 10.0    0.003    0.003    7.738    7.738
 apply_preconditioner_dbcsr          70 11.0    0.000    0.000    7.286    7.510
 apply_single                        70 12.0    0.000    0.000    7.286    7.510
 pw_gather_p                        545 13.1    7.025    7.224    7.025    7.224
 -------------------------------------------------------------------------------

 The number of warnings for this run is : 1
 
 -------------------------------------------------------------------------------
  **** **** ******  **  PROGRAM ENDED AT                 2021-08-02 16:42:34.608
 ***** ** ***  *** **   PROGRAM RAN ON                      cn855.scarf.rl.ac.uk
 **    ****   ******    PROGRAM RAN BY
 ***** **    ** ** **   PROGRAM PROCESS ID                                230521
  **** **  *******  **  PROGRAM STOPPED IN
